# vtk DataFile Version 4.0
vtk output
ASCII
DATASET UNSTRUCTURED_GRID
POINTS 340 float
1.0000000e+00 1.0000000e+01 0.0000000e+00 
1.0000000e+00 9.8000002e+00 0.0000000e+00 
8.0000001e-01 1.0000000e+01 0.0000000e+00 
7.2964472e-01 9.8093147e+00 0.0000000e+00 
8.4182751e-01 9.6382694e+00 0.0000000e+00 
6.0000002e-01 1.0000000e+01 0.0000000e+00 
1.0000000e+00 9.6000004e+00 0.0000000e+00 
5.0000000e-01 9.8267946e+00 0.0000000e+00 
6.3604087e-01 9.5908260e+00 0.0000000e+00 
8.4263843e-01 9.4342804e+00 0.0000000e+00 
4.0000001e-01 1.0000000e+01 0.0000000e+00 
1.0000000e+00 9.3999996e+00 0.0000000e+00 
4.0534732e-01 9.6340141e+00 0.0000000e+00 
2.7881753e-01 9.8140564e+00 0.0000000e+00 
6.7177695e-01 9.3303623e+00 0.0000000e+00 
4.9604306e-01 9.4256926e+00 0.0000000e+00 
8.4713864e-01 9.2343493e+00 0.0000000e+00 
2.0000000e-01 1.0000000e+01 0.0000000e+00 
1.0000000e+00 9.1999998e+00 0.0000000e+00 
3.0000001e-01 9.4803848e+00 0.0000000e+00 
1.6755788e-01 9.6235323e+00 0.0000000e+00 
6.7617422e-01 9.1307087e+00 0.0000000e+00 
4.8477495e-01 9.2195473e+00 0.0000000e+00 
8.5255039e-01 9.0345669e+00 0.0000000e+00 
0.0000000e+00 1.0000000e+01 0.0000000e+00 
1.0000000e+00 9.0000000e+00 0.0000000e+00 
0.0000000e+00 9.8000002e+00 0.0000000e+00 
2.2804837e-01 9.2825413e+00 0.0000000e+00 
0.0000000e+00 9.6000004e+00 0.0000000e+00 
5.0581944e-01 9.0259790e+00 0.0000000e+00 
3.3078760e-01 9.1219988e+00 0.0000000e+00 
6.8160146e-01 8.9308100e+00 0.0000000e+00 
0.0000000e+00 9.3999996e+00 0.0000000e+00 
8.5683817e-01 8.8346405e+00 0.0000000e+00 
1.0000000e+00 8.8000002e+00 0.0000000e+00 
1.7320508e-01 9.1000004e+00 0.0000000e+00 
3.3639798e-01 8.9224386e+00 0.0000000e+00 
5.1166874e-01 8.8261728e+00 0.0000000e+00 
0.0000000e+00 9.1999998e+00 0.0000000e+00 
6.8573916e-01 8.7312880e+00 0.0000000e+00 
1.7320508e-01 8.8999996e+00 0.0000000e+00 
1.0000000e+00 8.6000004e+00 0.0000000e+00 
0.0000000e+00 9.0000000e+00 0.0000000e+00 
3.4077987e-01 8.7225189e+00 0.0000000e+00 
5.1553297e-01 8.6263428e+00 0.0000000e+00 
7.3636049e-01 8.5193882e+00 0.0000000e+00 
0.0000000e+00 8.8000002e+00 0.0000000e+00 
1.0000000e+00 8.3999996e+00 0.0000000e+00 
1.7061394e-01 8.6176825e+00 0.0000000e+00 
3.4670532e-01 8.5231361e+00 0.0000000e+00 
5.2180642e-01 8.4266043e+00 0.0000000e+00 
7.4737626e-01 8.3175163e+00 0.0000000e+00 
0.0000000e+00 8.6000004e+00 0.0000000e+00 
1.7467257e-01 8.4178057e+00 0.0000000e+00 
3.5083947e-01 8.3232317e+00 0.0000000e+00 
1.0000000e+00 8.1999998e+00 0.0000000e+00 
5.2511263e-01 8.2268429e+00 0.0000000e+00 
0.0000000e+00 8.3999996e+00 0.0000000e+00 
7.5983411e-01 8.1149063e+00 0.0000000e+00 
1.8103610e-01 8.2179594e+00 0.0000000e+00 
3.5745192e-01 8.1241884e+00 0.0000000e+00 
1.0000000e+00 8.0000000e+00 0.0000000e+00 
5.3222626e-01 8.0272846e+00 0.0000000e+00 
0.0000000e+00 8.1999998e+00 0.0000000e+00 
7.5571120e-01 7.9173551e+00 0.0000000e+00 
1.8344399e-01 8.0151854e+00 0.0000000e+00 
3.6146736e-01 7.9243879e+00 0.0000000e+00 
1.0000000e+00 7.8000002e+00 0.0000000e+00 
5.3374660e-01 7.8279252e+00 0.0000000e+00 
0.0000000e+00 8.0000000e+00 0.0000000e+00 
7.6374203e-01 7.7163153e+00 0.0000000e+00 
1.9437179e-01 7.8156433e+00 0.0000000e+00 
3.7308612e-01 7.7272835e+00 0.0000000e+00 
1.0000000e+00 7.5999999e+00 0.0000000e+00 
5.4554766e-01 7.6299233e+00 0.0000000e+00 
0.0000000e+00 7.8000002e+00 0.0000000e+00 
7.4744660e-01 7.5226874e+00 0.0000000e+00 
2.0444529e-01 7.6206732e+00 0.0000000e+00 
3.8187346e-01 7.5294333e+00 0.0000000e+00 
0.0000000e+00 7.5999999e+00 0.0000000e+00 
1.0000000e+00 7.4000001e+00 0.0000000e+00 
5.2131432e-01 7.4393973e+00 0.0000000e+00 
1.9729473e-01 7.4537926e+00 0.0000000e+00 
7.0935732e-01 7.3327885e+00 0.0000000e+00 
3.5328710e-01 7.3320160e+00 0.0000000e+00 
8.4863865e-01 7.2198439e+00 0.0000000e+00 
0.0000000e+00 7.4000001e+00 0.0000000e+00 
5.3123343e-01 7.2420211e+00 0.0000000e+00 
1.0000000e+00 7.1999998e+00 0.0000000e+00 
1.7718045e-01 7.2569203e+00 0.0000000e+00 
6.6225648e-01 7.1541371e+00 0.0000000e+00 
3.4724638e-01 7.1689978e+00 0.0000000e+00 
8.3611876e-01 7.0656843e+00 0.0000000e+00 
0.0000000e+00 7.1999998e+00 0.0000000e+00 
4.9535713e-01 7.0473509e+00 0.0000000e+00 
1.0000000e+00 7.0000000e+00 0.0000000e+00 
1.7387313e-01 7.0734706e+00 0.0000000e+00 
6.6474640e-01 6.9560146e+00 0.0000000e+00 
3.4690949e-01 6.9773350e+00 0.0000000e+00 
8.4107113e-01 6.8641090e+00 0.0000000e+00 
0.0000000e+00 7.0000000e+00 0.0000000e+00 
5.2873749e-01 6.8578229e+00 0.0000000e+00 
1.0000000e+00 6.8000002e+00 0.0000000e+00 
1.7445621e-01 6.8769779e+00 0.0000000e+00 
6.7736709e-01 6.7575765e+00 0.0000000e+00 
3.4595537e-01 6.7778087e+00 0.0000000e+00 
8.3462298e-01 6.6689000e+00 0.0000000e+00 
0.0000000e+00 6.8000002e+00 0.0000000e+00 
5.0501287e-01 6.6597099e+00 0.0000000e+00 
1.0000000e+00 6.5999999e+00 0.0000000e+00 
1.8097465e-01 6.6789780e+00 0.0000000e+00 
6.6962856e-01 6.5595260e+00 0.0000000e+00 
3.2066780e-01 6.5871606e+00 0.0000000e+00 
8.3965176e-01 6.4710097e+00 0.0000000e+00 
0.0000000e+00 6.5999999e+00 0.0000000e+00 
4.8932999e-01 6.4914999e+00 0.0000000e+00 
1.0000000e+00 6.4000001e+00 0.0000000e+00 
1.4997987e-01 6.4839683e+00 0.0000000e+00 
6.6350561e-01 6.3954086e+00 0.0000000e+00 
3.2280096e-01 6.3877153e+00 0.0000000e+00 
8.3153027e-01 6.2889266e+00 0.0000000e+00 
0.0000000e+00 6.4000001e+00 0.0000000e+00 
4.9695736e-01 6.2927222e+00 0.0000000e+00 
1.0000000e+00 6.1999998e+00 0.0000000e+00 
1.6071729e-01 6.2864423e+00 0.0000000e+00 
6.5358984e-01 6.1999998e+00 0.0000000e+00 
3.3329538e-01 6.1896143e+00 0.0000000e+00 
8.1998920e-01 6.0895286e+00 0.0000000e+00 
0.0000000e+00 6.1999998e+00 0.0000000e+00 
4.8038477e-01 6.0999999e+00 0.0000000e+00 
1.7059118e-01 6.0888028e+00 0.0000000e+00 
1.0000000e+00 6.0000000e+00 0.0000000e+00 
6.5358984e-01 6.0000000e+00 0.0000000e+00 
3.0717969e-01 6.0000000e+00 0.0000000e+00 
8.2679492e-01 5.9000001e+00 0.0000000e+00 
0.0000000e+00 6.0000000e+00 0.0000000e+00 
4.8038477e-01 5.9000001e+00 0.0000000e+00 
1.3397460e-01 5.9000001e+00 0.0000000e+00 
1.0000000e+00 5.8000002e+00 0.0000000e+00 
6.5358984e-01 5.8000002e+00 0.0000000e+00 
3.0717969e-01 5.8000002e+00 0.0000000e+00 
8.2679492e-01 5.6999998e+00 0.0000000e+00 
0.0000000e+00 5.8000002e+00 0.0000000e+00 
4.8038477e-01 5.6999998e+00 0.0000000e+00 
1.3397460e-01 5.6999998e+00 0.0000000e+00 
1.0000000e+00 5.5999999e+00 0.0000000e+00 
6.5358984e-01 5.5999999e+00 0.0000000e+00 
3.2231969e-01 5.6385756e+00 0.0000000e+00 
8.2679492e-01 5.5000000e+00 0.0000000e+00 
0.0000000e+00 5.5999999e+00 0.0000000e+00 
4.8038477e-01 5.5000000e+00 0.0000000e+00 
1.7059118e-01 5.5111971e+00 0.0000000e+00 
1.0000000e+00 5.4000001e+00 0.0000000e+00 
6.5358984e-01 5.4000001e+00 0.0000000e+00 
3.3329538e-01 5.3896141e+00 0.0000000e+00 
8.2679492e-01 5.3000002e+00 0.0000000e+00 
0.0000000e+00 5.4000001e+00 0.0000000e+00 
4.8038477e-01 5.3000002e+00 0.0000000e+00 
1.7059118e-01 5.2888031e+00 0.0000000e+00 
1.0000000e+00 5.1999998e+00 0.0000000e+00 
6.5358984e-01 5.1999998e+00 0.0000000e+00 
3.0717969e-01 5.1999998e+00 0.0000000e+00 
8.2679492e-01 5.0999999e+00 0.0000000e+00 
0.0000000e+00 5.1999998e+00 0.0000000e+00 
4.8038477e-01 5.0999999e+00 0.0000000e+00 
1.3397460e-01 5.0999999e+00 0.0000000e+00 
1.0000000e+00 5.0000000e+00 0.0000000e+00 
6.5358984e-01 5.0000000e+00 0.0000000e+00 
3.0717969e-01 5.0000000e+00 0.0000000e+00 
0.0000000e+00 5.0000000e+00 0.0000000e+00 
8.2679492e-01 4.9000001e+00 0.0000000e+00 
4.8038477e-01 4.9000001e+00 0.0000000e+00 
1.3397460e-01 4.9000001e+00 0.0000000e+00 
1.0000000e+00 4.8000002e+00 0.0000000e+00 
6.5358984e-01 4.8000002e+00 0.0000000e+00 
3.0717969e-01 4.8000002e+00 0.0000000e+00 
0.0000000e+00 4.8000002e+00 0.0000000e+00 
8.2679492e-01 4.6999998e+00 0.0000000e+00 
4.8038477e-01 4.6999998e+00 0.0000000e+00 
1.3397460e-01 4.6999998e+00 0.0000000e+00 
1.0000000e+00 4.5999999e+00 0.0000000e+00 
6.5358984e-01 4.5999999e+00 0.0000000e+00 
3.0717969e-01 4.5999999e+00 0.0000000e+00 
0.0000000e+00 4.5999999e+00 0.0000000e+00 
8.2679492e-01 4.5000000e+00 0.0000000e+00 
4.8038477e-01 4.5000000e+00 0.0000000e+00 
1.3397460e-01 4.5000000e+00 0.0000000e+00 
1.0000000e+00 4.4000001e+00 0.0000000e+00 
6.5358984e-01 4.4000001e+00 0.0000000e+00 
3.0717969e-01 4.4000001e+00 0.0000000e+00 
8.3046603e-01 4.3165317e+00 0.0000000e+00 
0.0000000e+00 4.4000001e+00 0.0000000e+00 
4.8038477e-01 4.3000002e+00 0.0000000e+00 
1.7059118e-01 4.3111973e+00 0.0000000e+00 
6.6123927e-01 4.2184782e+00 0.0000000e+00 
1.0000000e+00 4.1999998e+00 0.0000000e+00 
3.3329538e-01 4.2103858e+00 0.0000000e+00 
8.3268768e-01 4.1176395e+00 0.0000000e+00 
0.0000000e+00 4.1999998e+00 0.0000000e+00 
4.9695736e-01 4.1072779e+00 0.0000000e+00 
1.6071729e-01 4.1135573e+00 0.0000000e+00 
1.0000000e+00 4.0000000e+00 0.0000000e+00 
3.2280096e-01 4.0122848e+00 0.0000000e+00 
6.4947557e-01 3.9632084e+00 0.0000000e+00 
8.4590596e-01 3.9203768e+00 0.0000000e+00 
0.0000000e+00 4.0000000e+00 0.0000000e+00 
4.7627035e-01 3.9377375e+00 0.0000000e+00 
1.4997987e-01 3.9160316e+00 0.0000000e+00 
1.0000000e+00 3.8000000e+00 0.0000000e+00 
3.2066780e-01 3.8128395e+00 0.0000000e+00 
5.1165128e-01 3.7661045e+00 0.0000000e+00 
0.0000000e+00 3.8000000e+00 0.0000000e+00 
7.4880123e-01 3.7184730e+00 0.0000000e+00 
1.8097465e-01 3.7210221e+00 0.0000000e+00 
1.0000000e+00 3.5999999e+00 0.0000000e+00 
3.4595537e-01 3.6221914e+00 0.0000000e+00 
5.2873749e-01 3.5421770e+00 0.0000000e+00 
0.0000000e+00 3.5999999e+00 0.0000000e+00 
1.7445621e-01 3.5230222e+00 0.0000000e+00 
7.1247655e-01 3.4632580e+00 0.0000000e+00 
1.0000000e+00 3.4000001e+00 0.0000000e+00 
3.4690949e-01 3.4226651e+00 0.0000000e+00 
0.0000000e+00 3.4000001e+00 0.0000000e+00 
5.1989859e-01 3.3223066e+00 0.0000000e+00 
8.2679492e-01 3.3000000e+00 0.0000000e+00 
1.7356591e-01 3.3231418e+00 0.0000000e+00 
1.0000000e+00 3.2000000e+00 0.0000000e+00 
3.4647828e-01 3.2226951e+00 0.0000000e+00 
6.5358984e-01 3.2000000e+00 0.0000000e+00 
5.0604391e-01 3.1465836e+00 0.0000000e+00 
[...]
POINT_DATA 340
FIELD FieldData 3
DISPLACEMENT 3 340  float
-5.2402129e-06 3.6290240e-07 0.0000000e+00 
-5.1000443e-06 3.6263265e-07 0.0000000e+00 
-5.2401087e-06 2.2275356e-07 0.0000000e+00 
-5.1064330e-06 1.7320382e-07 0.0000000e+00 
-4.9865475e-06 2.5154165e-07 0.0000000e+00 
-5.2400255e-06 8.2636973e-08 0.0000000e+00 
-4.9598020e-06 3.6234721e-07 0.0000000e+00 
-5.1186280e-06 1.2394502e-08 0.0000000e+00 
-4.9531750e-06 1.0735759e-07 0.0000000e+00 
-4.8434463e-06 2.5176180e-07 0.0000000e+00 
-5.2400114e-06 -5.7458024e-08 0.0000000e+00 
-4.8195234e-06 3.6197426e-07 0.0000000e+00 
-4.9834402e-06 -5.4084186e-08 0.0000000e+00 
-5.1097145e-06 -1.4253622e-07 0.0000000e+00 
-4.7704302e-06 1.3197287e-07 0.0000000e+00 
-4.8372781e-06 9.1695798e-09 0.0000000e+00 
-4.7031858e-06 2.5448574e-07 0.0000000e+00 
-5.2400587e-06 -1.9758556e-07 0.0000000e+00 
-4.6792516e-06 3.6147532e-07 0.0000000e+00 
-4.8756774e-06 -1.2795891e-07 0.0000000e+00 
-4.9761479e-06 -2.2064982e-07 0.0000000e+00 
-4.6303480e-06 1.3469523e-07 0.0000000e+00 
-4.6926134e-06 1.0782296e-09 0.0000000e+00 
-4.5630800e-06 2.5773971e-07 0.0000000e+00 
-5.2401238e-06 -3.3774367e-07 0.0000000e+00 
-4.5390475e-06 3.6081093e-07 0.0000000e+00 
-5.0999483e-06 -3.3793333e-07 0.0000000e+00 
-4.7368567e-06 -1.7843207e-07 0.0000000e+00 
-4.9597174e-06 -3.3810102e-07 0.0000000e+00 
-4.5568008e-06 1.5549045e-08 0.0000000e+00 
-4.6241644e-06 -1.0664585e-07 0.0000000e+00 
-4.4901772e-06 1.3805825e-07 0.0000000e+00 
-4.8194170e-06 -3.3819697e-07 0.0000000e+00 
-4.4230105e-06 2.6007501e-07 0.0000000e+00 
-4.3990794e-06 3.5990914e-07 0.0000000e+00 
-4.6087753e-06 -2.1680992e-07 0.0000000e+00 
-4.4841777e-06 -1.0278495e-07 0.0000000e+00 
-4.4167587e-06 1.9372743e-08 0.0000000e+00 
-4.6791088e-06 -3.3820038e-07 0.0000000e+00 
-4.3504710e-06 1.4044551e-07 0.0000000e+00 
-4.4684803e-06 -2.1672638e-07 0.0000000e+00 
-4.2592160e-06 3.5885532e-07 0.0000000e+00 
-4.5387269e-06 -3.3804218e-07 0.0000000e+00 
-4.3441573e-06 -9.9762268e-08 0.0000000e+00 
-4.2769370e-06 2.1792253e-08 0.0000000e+00 
-4.2024626e-06 1.7496447e-07 0.0000000e+00 
-4.3985397e-06 -3.3768552e-07 0.0000000e+00 
-4.1197864e-06 3.5766348e-07 0.0000000e+00 
-4.2708793e-06 -2.1824023e-07 0.0000000e+00 
-4.2047918e-06 -9.5647813e-08 0.0000000e+00 
-4.1375133e-06 2.5828145e-08 0.0000000e+00 
-4.0618111e-06 1.8181977e-07 0.0000000e+00 
-4.2586798e-06 -3.3715995e-07 0.0000000e+00 
-4.1314061e-06 -2.1505629e-07 0.0000000e+00 
-4.0654645e-06 -9.2740265e-08 0.0000000e+00 
-3.9807514e-06 3.5625780e-07 0.0000000e+00 
-3.9984934e-06 2.7783345e-08 0.0000000e+00 
-4.1192106e-06 -3.3643747e-07 0.0000000e+00 
-3.9211136e-06 1.8953813e-07 0.0000000e+00 
-3.9923780e-06 -2.1017098e-07 0.0000000e+00 
-3.9271927e-06 -8.8084477e-08 0.0000000e+00 
-3.8422213e-06 3.5463032e-07 0.0000000e+00 
-3.8601047e-06 3.2332455e-08 0.0000000e+00 
-3.9801785e-06 -3.3552902e-07 0.0000000e+00 
-3.7844313e-06 1.8570842e-07 0.0000000e+00 
-3.8518283e-06 -2.0791994e-07 0.0000000e+00 
-3.7889242e-06 -8.5190003e-08 0.0000000e+00 
-3.7042710e-06 3.5282457e-07 0.0000000e+00 
-3.7224156e-06 3.3007815e-08 0.0000000e+00 
-3.8416570e-06 -3.3442933e-07 0.0000000e+00 
-3.6459771e-06 1.9011509e-07 0.0000000e+00 
-3.7140842e-06 -1.9970673e-07 0.0000000e+00 
-3.6531046e-06 -7.7058850e-08 0.0000000e+00 
-3.5669966e-06 3.5079526e-07 0.0000000e+00 
-3.5863075e-06 4.0657337e-08 0.0000000e+00 
-3.7037262e-06 -3.3315388e-07 0.0000000e+00 
-3.5132405e-06 1.7781362e-07 0.0000000e+00 
-3.5801017e-06 -1.9202726e-07 0.0000000e+00 
-3.5174407e-06 -7.0893243e-08 0.0000000e+00 
-3.5664618e-06 -3.3169911e-07 0.0000000e+00 
-3.4303885e-06 3.4864038e-07 0.0000000e+00 
-3.4559814e-06 2.3739730e-08 0.0000000e+00 
-3.4660013e-06 -1.9615170e-07 0.0000000e+00 
-3.3837046e-06 1.5076023e-07 0.0000000e+00 
-3.3828676e-06 -8.9997769e-08 0.0000000e+00 
-3.3074887e-06 2.4417241e-07 0.0000000e+00 
-3.4299158e-06 -3.3000867e-07 0.0000000e+00 
-3.3217977e-06 3.0082209e-08 0.0000000e+00 
-3.2947364e-06 3.4620643e-07 0.0000000e+00 
-3.3321567e-06 -2.0873722e-07 0.0000000e+00 
-3.2624828e-06 1.1802715e-07 0.0000000e+00 
-3.2723592e-06 -9.3763298e-08 0.0000000e+00 
-3.2033013e-06 2.3426819e-07 0.0000000e+00 
-3.2941939e-06 -3.2807543e-07 0.0000000e+00 
-3.1902275e-06 5.6964611e-09 0.0000000e+00 
-3.1599136e-06 3.4352664e-07 0.0000000e+00 
-3.2081909e-06 -2.0983515e-07 0.0000000e+00 
-3.1290513e-06 1.1867875e-07 0.0000000e+00 
-3.1431944e-06 -9.3484523e-08 0.0000000e+00 
-3.0680812e-06 2.3556950e-07 0.0000000e+00 
-3.1593893e-06 -3.2594252e-07 0.0000000e+00 
-3.0630822e-06 2.7696672e-08 0.0000000e+00 
-3.0261124e-06 3.4063166e-07 0.0000000e+00 
-3.0762810e-06 -2.0809985e-07 0.0000000e+00 
-2.9964549e-06 1.2587918e-07 0.0000000e+00 
-3.0097219e-06 -9.3586628e-08 0.0000000e+00 
-2.9380842e-06 2.2919178e-07 0.0000000e+00 
-3.0255790e-06 -3.2360998e-07 0.0000000e+00 
-2.9311793e-06 1.1648009e-08 0.0000000e+00 
-2.8933821e-06 3.3754907e-07 0.0000000e+00 
-2.9443770e-06 -2.0228725e-07 0.0000000e+00 
-2.8651564e-06 1.1956260e-07 0.0000000e+00 
-2.8832467e-06 -1.0966077e-07 0.0000000e+00 
-2.8074728e-06 2.3027673e-07 0.0000000e+00 
-2.8928744e-06 -3.2111868e-07 0.0000000e+00 
-2.8200495e-06 1.1405077e-09 0.0000000e+00 
-2.7618248e-06 3.3424033e-07 0.0000000e+00 
-2.8156596e-06 -2.2102952e-07 0.0000000e+00 
-2.7572139e-06 1.1452487e-07 0.0000000e+00 
-2.7520250e-06 -1.0743467e-07 0.0000000e+00 
-2.6882926e-06 2.2283128e-07 0.0000000e+00 
-2.7612741e-06 -3.1830166e-07 0.0000000e+00 
-2.6898460e-06 5.8909659e-09 0.0000000e+00 
-2.6315249e-06 3.3075000e-07 0.0000000e+00 
-2.6863383e-06 -2.1217100e-07 0.0000000e+00 
-2.6298055e-06 1.0680614e-07 0.0000000e+00 
-2.6229097e-06 -9.9786526e-08 0.0000000e+00 
-2.5589870e-06 2.1294598e-07 0.0000000e+00 
-2.6309760e-06 -3.1535734e-07 0.0000000e+00 
-2.5648405e-06 -5.0046909e-09 0.0000000e+00 
-2.5581987e-06 -2.0384057e-07 0.0000000e+00 
-2.5025533e-06 3.2710739e-07 0.0000000e+00 
-2.5007275e-06 1.0550629e-07 0.0000000e+00 
-2.5006266e-06 -1.1565817e-07 0.0000000e+00 
-2.4374231e-06 2.1487605e-07 0.0000000e+00 
-2.5020031e-06 -3.1227987e-07 0.0000000e+00 
-2.4364406e-06 -5.1264482e-09 0.0000000e+00 
-2.4372034e-06 -2.2517169e-07 0.0000000e+00 
-2.3749719e-06 3.2321790e-07 0.0000000e+00 
-2.3730593e-06 1.0412505e-07 0.0000000e+00 
-2.3729542e-06 -1.1454294e-07 0.0000000e+00 
-2.3105331e-06 2.1218473e-07 0.0000000e+00 
-2.3743771e-06 -3.0882941e-07 0.0000000e+00 
-2.3094992e-06 -5.2359832e-09 0.0000000e+00 
-2.3103312e-06 -2.2276009e-07 0.0000000e+00 
-2.2488955e-06 3.1914254e-07 0.0000000e+00 
-2.2468946e-06 1.0267718e-07 0.0000000e+00 
-2.2709669e-06 -1.0408881e-07 0.0000000e+00 
-2.1851727e-06 2.0936100e-07 0.0000000e+00 
-2.2483396e-06 -3.0517393e-07 0.0000000e+00 
-2.1841079e-06 -5.3607345e-09 0.0000000e+00 
-2.1918090e-06 -1.9757059e-07 0.0000000e+00 
-2.1243673e-06 3.1488764e-07 0.0000000e+00 
-2.1222936e-06 1.0116280e-07 0.0000000e+00 
-2.1156907e-06 -9.5890854e-08 0.0000000e+00 
-2.0613834e-06 2.0641117e-07 0.0000000e+00 
-2.1238664e-06 -3.0149889e-07 0.0000000e+00 
-2.0602886e-06 -5.5405134e-09 0.0000000e+00 
-2.0541927e-06 -1.9478443e-07 0.0000000e+00 
-2.0014388e-06 3.1044615e-07 0.0000000e+00 
-1.9992729e-06 9.9586870e-08 0.0000000e+00 
-1.9992726e-06 -1.1069424e-07 0.0000000e+00 
-1.9392146e-06 2.0332367e-07 0.0000000e+00 
-2.0010389e-06 -2.9758041e-07 0.0000000e+00 
-1.9381384e-06 -5.6118412e-09 0.0000000e+00 
-1.9393028e-06 -2.1441841e-07 0.0000000e+00 
-1.8801625e-06 3.0580037e-07 0.0000000e+00 
-1.8779248e-06 9.7967977e-08 0.0000000e+00 
-1.8780694e-06 -1.0921308e-07 0.0000000e+00 
-1.8801510e-06 -2.9327839e-07 0.0000000e+00 
-1.8187235e-06 2.0009300e-07 0.0000000e+00 
-1.8176714e-06 -5.6385683e-09 0.0000000e+00 
-1.8191676e-06 -2.1131748e-07 0.0000000e+00 
-1.7605971e-06 3.0092014e-07 0.0000000e+00 
-1.7582628e-06 9.6295516e-08 0.0000000e+00 
-1.7585567e-06 -1.0755286e-07 0.0000000e+00 
-1.7610364e-06 -2.8884702e-07 0.0000000e+00 
-1.6999513e-06 1.9668488e-07 0.0000000e+00 
-1.6988988e-06 -5.6093081e-09 0.0000000e+00 
-1.7006347e-06 -2.0792493e-07 0.0000000e+00 
-1.6428074e-06 2.9573883e-07 0.0000000e+00 
-1.6403326e-06 9.4546714e-08 0.0000000e+00 
-1.6407237e-06 -1.0572351e-07 0.0000000e+00 
-1.6433731e-06 -2.8410858e-07 0.0000000e+00 
-1.5829731e-06 1.9304679e-07 0.0000000e+00 
-1.5818737e-06 -5.5368741e-09 0.0000000e+00 
-1.5837496e-06 -2.0430657e-07 0.0000000e+00 
-1.5269181e-06 2.9015854e-07 0.0000000e+00 
-1.5242413e-06 9.2689618e-08 0.0000000e+00 
-1.5246557e-06 -1.0372523e-07 0.0000000e+00 
-1.4773948e-06 1.9154105e-07 0.0000000e+00 
-1.5275523e-06 -2.7885943e-07 0.0000000e+00 
-1.4667489e-06 -5.4397193e-09 0.0000000e+00 
-1.4748075e-06 -1.7979222e-07 0.0000000e+00 
-1.4206340e-06 9.5169767e-08 0.0000000e+00 
-1.4130786e-06 2.8403915e-07 0.0000000e+00 
-1.4162864e-06 -8.7149999e-08 0.0000000e+00 
-1.3649512e-06 1.8849424e-07 0.0000000e+00 
-1.4136983e-06 -2.7335673e-07 0.0000000e+00 
-1.3577514e-06 3.6760583e-09 0.0000000e+00 
-1.3631264e-06 -1.8133584e-07 0.0000000e+00 
-1.3016437e-06 2.7722751e-07 0.0000000e+00 
-1.3054917e-06 -9.0828472e-08 0.0000000e+00 
-1.2778669e-06 8.5806704e-08 0.0000000e+00 
-1.2560924e-06 1.9108163e-07 0.0000000e+00 
-1.3018071e-06 -2.6717680e-07 0.0000000e+00 
-1.2639870e-06 -7.4801347e-09 0.0000000e+00 
-1.2537374e-06 -1.8287099e-07 0.0000000e+00 
-1.1929219e-06 2.6941134e-07 0.0000000e+00 
-1.1963286e-06 -8.9619078e-08 0.0000000e+00 
-1.1707417e-06 1.1242701e-08 0.0000000e+00 
-1.1924943e-06 -2.6016536e-07 0.0000000e+00 
-1.1460846e-06 1.3484181e-07 0.0000000e+00 
-1.1479352e-06 -1.6178619e-07 0.0000000e+00 
-1.0867491e-06 2.6178705e-07 0.0000000e+00 
-1.0943575e-06 -7.4398585e-08 0.0000000e+00 
-1.0521998e-06 1.9117550e-08 0.0000000e+00 
-1.0863240e-06 -2.5276560e-07 0.0000000e+00 
-1.0439320e-06 -1.6026674e-07 0.0000000e+00 
-1.0124505e-06 1.1081249e-07 0.0000000e+00 
-9.8454836e-07 2.5390318e-07 0.0000000e+00 
-9.9111367e-07 -7.1687985e-08 0.0000000e+00 
-9.8346266e-07 -2.4455244e-07 0.0000000e+00 
-9.4022801e-07 1.3974375e-08 0.0000000e+00 
-9.3136686e-07 1.6338763e-07 0.0000000e+00 
-9.4231171e-07 -1.5530784e-07 0.0000000e+00 
-8.8489406e-07 2.4419813e-07 0.0000000e+00 
-8.9112433e-07 -6.9503322e-08 0.0000000e+00 
-8.8012126e-07 7.7401438e-08 0.0000000e+00 
-8.5363092e-07 7.1724706e-09 0.0000000e+00 
-8.8420467e-07 -2.3566427e-07 0.0000000e+00 
-8.3357526e-07 1.5685283e-07 0.0000000e+00 
-8.4426597e-07 -1.4961326e-07 0.0000000e+00 
-7.8927280e-07 2.3393531e-07 0.0000000e+00 
-7.8446601e-07 7.4072432e-08 0.0000000e+00 
-7.8265560e-07 -4.1857007e-08 0.0000000e+00 
-7.8860478e-07 -2.2612390e-07 0.0000000e+00 
-7.3976480e-07 1.4982236e-07 0.0000000e+00 
-7.3851783e-07 -1.4026851e-07 0.0000000e+00 
-6.9764360e-07 2.2308180e-07 0.0000000e+00 
-6.9440222e-07 4.4664493e-08 0.0000000e+00 
-6.8753826e-07 -6.4174031e-08 0.0000000e+00 
-6.9735705e-07 -2.1593641e-07 0.0000000e+00 
-6.5028394e-07 1.4280441e-07 0.0000000e+00 
-6.5009357e-07 -1.3582928e-07 0.0000000e+00 
-6.2984685e-07 -6.5604833e-09 0.0000000e+00 
-6.1074218e-07 2.1156339e-07 0.0000000e+00 
-6.0510212e-07 6.6675874e-08 0.0000000e+00 
-6.0528617e-07 -7.6125858e-08 0.0000000e+00 
-6.1032972e-07 -2.0493464e-07 0.0000000e+00 
-5.6527574e-07 1.3479061e-07 0.0000000e+00 
-5.6248746e-07 -4.5468118e-09 0.0000000e+00 
-5.6496333e-07 -1.2825713e-07 0.0000000e+00 
-5.2829415e-07 1.9925018e-07 0.0000000e+00 
-5.2239113e-07 6.2813704e-08 0.0000000e+00 
-5.2250851e-07 -7.1853805e-08 0.0000000e+00 
-5.2781525e-07 -1.9315169e-07 0.0000000e+00 
-4.8510481e-07 1.2640869e-07 0.0000000e+00 
-4.8218396e-07 -4.3858832e-09 0.0000000e+00 
-4.8473555e-07 -1.2022649e-07 0.0000000e+00 
-4.5083624e-07 1.8622340e-07 0.0000000e+00 
-4.4460265e-07 5.8670395e-08 0.0000000e+00 
-4.4477929e-07 -6.7368255e-08 0.0000000e+00 
-4.5033386e-07 -1.8083733e-07 0.0000000e+00 
-4.1002940e-07 1.1758829e-07 0.0000000e+00 
-4.0690787e-07 -4.1556869e-09 0.0000000e+00 
-4.1030486e-07 -1.2584852e-07 0.0000000e+00 
-3.7862443e-07 1.7246862e-07 0.0000000e+00 
-3.7206209e-07 5.4267300e-08 0.0000000e+00 
-3.7222478e-07 -6.2374127e-08 0.0000000e+00 
-3.7797122e-07 -1.6734548e-07 0.0000000e+00 
-3.4035818e-07 1.0834036e-07 0.0000000e+00 
-3.3706644e-07 -3.8919903e-09 0.0000000e+00 
-3.4069524e-07 -1.1613897e-07 0.0000000e+00 
-3.1203859e-07 1.5794586e-07 0.0000000e+00 
-3.0506928e-07 4.9609849e-08 0.0000000e+00 
-3.0525362e-07 -5.7157600e-08 0.0000000e+00 
-3.1135463e-07 -1.5339087e-07 0.0000000e+00 
-2.8112575e-07 9.5639393e-08 0.0000000e+00 
-2.7294323e-07 -3.5995691e-09 0.0000000e+00 
-2.7674625e-07 -1.0583163e-07 0.0000000e+00 
-2.5118243e-07 1.4305785e-07 0.0000000e+00 
-2.4391076e-07 4.4846278e-08 0.0000000e+00 
-2.4411818e-07 -5.1680562e-08 0.0000000e+00 
-2.5049593e-07 -1.3871163e-07 0.0000000e+00 
-2.2345783e-07 8.9913094e-08 0.0000000e+00 
-2.1473807e-07 -3.3002960e-09 0.0000000e+00 
-2.1876323e-07 -9.5081099e-08 0.0000000e+00 
-1.9569696e-07 4.1807244e-08 0.0000000e+00 
-1.9640494e-07 1.2715579e-07 0.0000000e+00 
-1.8909043e-07 -4.5864805e-08 0.0000000e+00 
-1.9589478e-07 -1.2305649e-07 0.0000000e+00 
-1.7139243e-07 7.8622293e-08 0.0000000e+00 
-1.6991685e-07 -2.9070202e-10 0.0000000e+00 
-1.6899533e-07 -7.5518471e-08 0.0000000e+00 
-1.4660887e-07 3.7267931e-08 0.0000000e+00 
-1.4808894e-07 1.1077521e-07 0.0000000e+00 
-1.4250840e-07 -3.4590801e-08 0.0000000e+00 
-1.3272445e-07 7.3323676e-08 0.0000000e+00 
-1.4745632e-07 -1.0736198e-07 0.0000000e+00 
-1.2391897e-07 4.7078896e-09 0.0000000e+00 
-1.2398937e-07 -6.7035273e-08 0.0000000e+00 
-1.0525225e-07 3.5801730e-08 0.0000000e+00 
-1.0621192e-07 9.3646342e-08 0.0000000e+00 
-1.0017941e-07 -2.9534327e-08 0.0000000e+00 
-1.0576225e-07 -9.0445198e-08 0.0000000e+00 
-9.0396156e-08 6.2959074e-08 0.0000000e+00 
-8.4490843e-08 3.8030006e-09 0.0000000e+00 
-8.4927350e-08 -5.2308518e-08 0.0000000e+00 
-6.9044198e-08 2.9801194e-08 0.0000000e+00 
-7.1319739e-08 7.5524547e-08 0.0000000e+00 
-6.5383098e-08 -2.1605604e-08 0.0000000e+00 
-7.0936132e-08 -7.3259024e-08 0.0000000e+00 
-5.7720179e-08 5.0493245e-08 0.0000000e+00 
-5.1691664e-08 3.3301621e-09 0.0000000e+00 
-5.3172162e-08 -4.1619515e-08 0.0000000e+00 
-3.9880447e-08 2.3025322e-08 0.0000000e+00 
-4.3830060e-08 5.6854873e-08 0.0000000e+00 
-3.6892910e-08 -1.6074575e-08 0.0000000e+00 
-4.3268088e-08 -5.5161522e-08 0.0000000e+00 
-3.0140683e-08 3.5795804e-08 0.0000000e+00 
-2.4635261e-08 2.8997291e-09 0.0000000e+00 
-2.8409488e-08 -2.9926230e-08 0.0000000e+00 
-1.6623163e-08 1.4909199e-08 0.0000000e+00 
-2.3852696e-08 3.7126426e-08 0.0000000e+00 
-1.5885332e-08 -1.0593693e-08 0.0000000e+00 
-1.4919374e-08 2.2467873e-08 0.0000000e+00 
-2.3165191e-08 -3.6217092e-08 0.0000000e+00 
-7.7671212e-09 2.0526270e-09 0.0000000e+00 
-9.2950199e-09 -1.5603391e-08 0.0000000e+00 
-5.3120104e-09 9.3284553e-09 0.0000000e+00 
-9.6078150e-09 1.7186188e-08 0.0000000e+00 
-1.9733393e-09 -2.9494527e-09 0.0000000e+00 
-9.7564135e-09 -1.6746128e-08 0.0000000e+00 
0.0000000e+00 0.0000000e+00 0.0000000e+00 
0.0000000e+00 0.0000000e+00 0.0000000e+00 
0.0000000e+00 0.0000000e+00 0.0000000e+00 
0.0000000e+00 0.0000000e+00 0.0000000e+00 
0.0000000e+00 0.0000000e+00 0.0000000e+00 
0.0000000e+00 0.0000000e+00 0.0000000e+00 
REACTION 3 340  float
-3.7808570e-06 -3.6570621e-06 0.0000000e+00 
-2.0181246e-06 3.4254606e-06 0.0000000e+00 
4.3417590e-06 -2.3559207e-06 0.0000000e+00 
-1.7041030e-07 1.5925054e-06 0.0000000e+00 
3.5603903e-06 1.5626362e-06 0.0000000e+00 
-7.7616130e-07 -2.8264728e-06 0.0000000e+00 
-1.7443472e-06 -7.4229001e-07 0.0000000e+00 
-8.7736737e-07 -1.1333182e-06 0.0000000e+00 
-5.2420096e-06 -3.9108395e-06 0.0000000e+00 
-1.8728856e-06 -2.6981616e-06 0.0000000e+00 
-1.0960827e-07 -2.5176562e-06 0.0000000e+00 
-2.0679506e-06 -8.2922799e-07 0.0000000e+00 
3.9796164e-06 3.6161343e-06 0.0000000e+00 
7.1582872e-07 5.9327357e-07 0.0000000e+00 
6.7296202e-07 4.0338700e-06 0.0000000e+00 
5.9126000e-06 7.1483078e-07 0.0000000e+00 
2.7373912e-06 -1.2771923e-07 0.0000000e+00 
1.6571508e-06 -6.0052054e-07 0.0000000e+00 
-4.3716987e-06 -4.5501369e-07 0.0000000e+00 
-1.6037515e-06 -1.3173992e-06 0.0000000e+00 
1.9704901e-06 4.6176183e-08 0.0000000e+00 
2.2175611e-06 -3.0642452e-06 0.0000000e+00 
9.1829357e-08 3.7408685e-07 0.0000000e+00 
-2.1493511e-06 1.1390101e-06 0.0000000e+00 
-1.2678667e-06 1.0061973e-06 0.0000000e+00 
-3.1100888e-07 2.5373622e-06 0.0000000e+00 
1.3517255e-06 1.6966960e-07 0.0000000e+00 
-2.8316215e-06 3.4931395e-07 0.0000000e+00 
-2.1445771e-06 -1.4903344e-06 0.0000000e+00 
-8.6657678e-07 -7.9486568e-07 0.0000000e+00 
7.0893566e-07 -4.1333328e-07 0.0000000e+00 
2.0297473e-06 2.0631255e-06 0.0000000e+00 
1.2862688e-06 -7.3900196e-07 0.0000000e+00 
-1.9657764e-06 2.0583871e-06 0.0000000e+00 
3.1608934e-07 -1.7346400e-06 0.0000000e+00 
-2.9885572e-07 8.8530192e-07 0.0000000e+00 
1.3766841e-06 1.4371582e-06 0.0000000e+00 
1.2007973e-06 -1.0162005e-06 0.0000000e+00 
2.0643565e-06 7.5129185e-07 0.0000000e+00 
-1.4808076e-06 -1.4258487e-06 0.0000000e+00 
-4.9055041e-07 -1.3655286e-06 0.0000000e+00 
-2.2333581e-06 -2.5546010e-06 0.0000000e+00 
2.9276066e-07 -1.3331418e-06 0.0000000e+00 
2.0659447e-06 -1.8356900e-06 0.0000000e+00 
-2.9842130e-07 2.9946241e-06 0.0000000e+00 
2.1258275e-06 -1.1241807e-06 0.0000000e+00 
-9.3517610e-07 1.2809528e-06 0.0000000e+00 
-1.9026375e-06 9.6526446e-07 0.0000000e+00 
1.8134515e-06 1.6381795e-06 0.0000000e+00 
2.3138250e-07 7.5520137e-07 0.0000000e+00 
4.3438823e-07 -2.4364620e-06 0.0000000e+00 
3.3348988e-07 -8.7711891e-07 0.0000000e+00 
-2.0860402e-06 5.8872649e-07 0.0000000e+00 
1.4664022e-06 -3.6963033e-07 0.0000000e+00 
1.8459011e-06 -1.2330223e-06 0.0000000e+00 
-3.1501552e-06 -2.1995260e-07 0.0000000e+00 
4.4825114e-07 2.0239725e-06 0.0000000e+00 
-1.5230681e-06 -2.0937630e-06 0.0000000e+00 
1.4167465e-06 8.7687846e-07 0.0000000e+00 
-1.3836520e-06 -1.1973242e-08 0.0000000e+00 
2.9333701e-06 1.9244411e-08 0.0000000e+00 
-5.9824953e-07 -3.0243968e-06 0.0000000e+00 
8.8878863e-08 -1.4408613e-06 0.0000000e+00 
4.7746477e-07 1.0448332e-07 0.0000000e+00 
-2.0912744e-06 -1.2605387e-06 0.0000000e+00 
-1.7580846e-06 -2.8103225e-06 0.0000000e+00 
1.1859736e-07 -1.9406084e-06 0.0000000e+00 
-1.6626323e-06 1.1772256e-06 0.0000000e+00 
2.8186894e-06 -1.5059397e-06 0.0000000e+00 
8.5696655e-07 9.1716402e-08 0.0000000e+00 
-3.4137383e-08 -1.6860265e-06 0.0000000e+00 
1.4127734e-06 1.9281727e-06 0.0000000e+00 
-2.7770901e-07 7.1178960e-07 0.0000000e+00 
-3.5484677e-06 -1.3629368e-06 0.0000000e+00 
4.7569040e-07 -4.9282711e-08 0.0000000e+00 
-3.3036684e-07 -1.0804379e-06 0.0000000e+00 
2.3469734e-06 1.8835874e-06 0.0000000e+00 
-2.5200293e-07 -2.1910266e-06 0.0000000e+00 
-1.0969500e-06 -9.2941619e-08 0.0000000e+00 
1.4502751e-06 -9.7572899e-07 0.0000000e+00 
-1.6080978e-07 -5.1785162e-07 0.0000000e+00 
2.3361927e-06 1.1631699e-07 0.0000000e+00 
-4.1318549e-07 3.7945031e-07 0.0000000e+00 
-2.8843313e-06 -1.4614188e-06 0.0000000e+00 
-1.5168417e-06 -1.6847408e-06 0.0000000e+00 
1.3441645e-06 -3.3643153e-06 0.0000000e+00 
7.9029758e-07 6.4409687e-07 0.0000000e+00 
2.7089675e-06 -4.7014041e-06 0.0000000e+00 
-2.4959425e-06 -3.7844785e-08 0.0000000e+00 
2.8103688e-07 3.2885970e-07 0.0000000e+00 
-4.7408292e-07 -1.9712079e-06 0.0000000e+00 
2.9125620e-06 2.0706598e-06 0.0000000e+00 
-3.2307744e-06 1.4671489e-06 0.0000000e+00 
1.4075553e-06 -2.3623361e-06 0.0000000e+00 
7.1439734e-07 1.3014959e-06 0.0000000e+00 
-7.4947496e-07 -5.2563820e-07 0.0000000e+00 
-3.2578894e-06 -8.6345216e-07 0.0000000e+00 
1.9094614e-06 3.4393904e-06 0.0000000e+00 
9.6244639e-07 -2.8689058e-06 0.0000000e+00 
-4.0979562e-06 -1.7604773e-06 0.0000000e+00 
1.5854839e-06 1.2438250e-06 0.0000000e+00 
-1.8152265e-06 5.9376362e-07 0.0000000e+00 
8.8370598e-07 -1.0446943e-06 0.0000000e+00 
1.2578705e-08 -8.9816672e-07 0.0000000e+00 
4.7819053e-06 -1.7378461e-06 0.0000000e+00 
-9.6290137e-07 2.6387108e-06 0.0000000e+00 
-7.7213237e-08 1.4213981e-09 0.0000000e+00 
2.1888511e-06 -1.0361942e-06 0.0000000e+00 