# vtk DataFile Version 4.0
vtk output
ASCII
DATASET UNSTRUCTURED_GRID
POINTS 340 float
1.0000000e+00 1.0000000e+01 0.0000000e+00 
1.0000000e+00 9.8000002e+00 0.0000000e+00 
8.0000001e-01 1.0000000e+01 0.0000000e+00 
7.2964472e-01 9.8093147e+00 0.0000000e+00 
8.4182751e-01 9.6382694e+00 0.0000000e+00 
6.0000002e-01 1.0000000e+01 0.0000000e+00 
1.0000000e+00 9.6000004e+00 0.0000000e+00 
5.0000000e-01 9.8267946e+00 0.0000000e+00 
6.3604087e-01 9.5908260e+00 0.0000000e+00 
8.4263843e-01 9.4342804e+00 0.0000000e+00 
4.0000001e-01 1.0000000e+01 0.0000000e+00 
1.0000000e+00 9.3999996e+00 0.0000000e+00 
4.0534732e-01 9.6340141e+00 0.0000000e+00 
2.7881753e-01 9.8140564e+00 0.0000000e+00 
6.7177695e-01 9.3303623e+00 0.0000000e+00 
4.9604306e-01 9.4256926e+00 0.0000000e+00 
8.4713864e-01 9.2343493e+00 0.0000000e+00 
2.0000000e-01 1.0000000e+01 0.0000000e+00 
1.0000000e+00 9.1999998e+00 0.0000000e+00 
3.0000001e-01 9.4803848e+00 0.0000000e+00 
1.6755788e-01 9.6235323e+00 0.0000000e+00 
6.7617422e-01 9.1307087e+00 0.0000000e+00 
4.8477495e-01 9.2195473e+00 0.0000000e+00 
8.5255039e-01 9.0345669e+00 0.0000000e+00 
0.0000000e+00 1.0000000e+01 0.0000000e+00 
1.0000000e+00 9.0000000e+00 0.0000000e+00 
0.0000000e+00 9.8000002e+00 0.0000000e+00 
2.2804837e-01 9.2825413e+00 0.0000000e+00 
0.0000000e+00 9.6000004e+00 0.0000000e+00 
5.0581944e-01 9.0259790e+00 0.0000000e+00 
3.3078760e-01 9.1219988e+00 0.0000000e+00 
6.8160146e-01 8.9308100e+00 0.0000000e+00 
0.0000000e+00 9.3999996e+00 0.0000000e+00 
8.5683817e-01 8.8346405e+00 0.0000000e+00 
1.0000000e+00 8.8000002e+00 0.0000000e+00 
1.7320508e-01 9.1000004e+00 0.0000000e+00 
3.3639798e-01 8.9224386e+00 0.0000000e+00 
5.1166874e-01 8.8261728e+00 0.0000000e+00 
0.0000000e+00 9.1999998e+00 0.0000000e+00 
6.8573916e-01 8.7312880e+00 0.0000000e+00 
1.7320508e-01 8.8999996e+00 0.0000000e+00 
1.0000000e+00 8.6000004e+00 0.0000000e+00 
0.0000000e+00 9.0000000e+00 0.0000000e+00 
3.4077987e-01 8.7225189e+00 0.0000000e+00 
5.1553297e-01 8.6263428e+00 0.0000000e+00 
7.3636049e-01 8.5193882e+00 0.0000000e+00 
0.0000000e+00 8.8000002e+00 0.0000000e+00 
1.0000000e+00 8.3999996e+00 0.0000000e+00 
1.7061394e-01 8.6176825e+00 0.0000000e+00 
3.4670532e-01 8.5231361e+00 0.0000000e+00 
5.2180642e-01 8.4266043e+00 0.0000000e+00 
7.4737626e-01 8.3175163e+00 0.0000000e+00 
0.0000000e+00 8.6000004e+00 0.0000000e+00 
1.7467257e-01 8.4178057e+00 0.0000000e+00 
3.5083947e-01 8.3232317e+00 0.0000000e+00 
1.0000000e+00 8.1999998e+00 0.0000000e+00 
5.2511263e-01 8.2268429e+00 0.0000000e+00 
0.0000000e+00 8.3999996e+00 0.0000000e+00 
7.5983411e-01 8.1149063e+00 0.0000000e+00 
1.8103610e-01 8.2179594e+00 0.0000000e+00 
3.5745192e-01 8.1241884e+00 0.0000000e+00 
1.0000000e+00 8.0000000e+00 0.0000000e+00 
5.3222626e-01 8.0272846e+00 0.0000000e+00 
0.0000000e+00 8.1999998e+00 0.0000000e+00 
7.5571120e-01 7.9173551e+00 0.0000000e+00 
1.8344399e-01 8.0151854e+00 0.0000000e+00 
3.6146736e-01 7.9243879e+00 0.0000000e+00 
1.0000000e+00 7.8000002e+00 0.0000000e+00 
5.3374660e-01 7.8279252e+00 0.0000000e+00 
0.0000000e+00 8.0000000e+00 0.0000000e+00 
7.6374203e-01 7.7163153e+00 0.0000000e+00 
1.9437179e-01 7.8156433e+00 0.0000000e+00 
3.7308612e-01 7.7272835e+00 0.0000000e+00 
1.0000000e+00 7.5999999e+00 0.0000000e+00 
5.4554766e-01 7.6299233e+00 0.0000000e+00 
0.0000000e+00 7.8000002e+00 0.0000000e+00 
7.4744660e-01 7.5226874e+00 0.0000000e+00 
2.0444529e-01 7.6206732e+00 0.0000000e+00 
3.8187346e-01 7.5294333e+00 0.0000000e+00 
0.0000000e+00 7.5999999e+00 0.0000000e+00 
1.0000000e+00 7.4000001e+00 0.0000000e+00 
5.2131432e-01 7.4393973e+00 0.0000000e+00 
1.9729473e-01 7.4537926e+00 0.0000000e+00 
7.0935732e-01 7.3327885e+00 0.0000000e+00 
3.5328710e-01 7.3320160e+00 0.0000000e+00 
8.4863865e-01 7.2198439e+00 0.0000000e+00 
0.0000000e+00 7.4000001e+00 0.0000000e+00 
5.3123343e-01 7.2420211e+00 0.0000000e+00 
1.0000000e+00 7.1999998e+00 0.0000000e+00 
1.7718045e-01 7.2569203e+00 0.0000000e+00 
6.6225648e-01 7.1541371e+00 0.0000000e+00 
3.4724638e-01 7.1689978e+00 0.0000000e+00 
8.3611876e-01 7.0656843e+00 0.0000000e+00 
0.0000000e+00 7.1999998e+00 0.0000000e+00 
4.9535713e-01 7.0473509e+00 0.0000000e+00 
1.0000000e+00 7.0000000e+00 0.0000000e+00 
1.7387313e-01 7.0734706e+00 0.0000000e+00 
6.6474640e-01 6.9560146e+00 0.0000000e+00 
3.4690949e-01 6.9773350e+00 0.0000000e+00 
8.4107113e-01 6.8641090e+00 0.0000000e+00 
0.0000000e+00 7.0000000e+00 0.0000000e+00 
5.2873749e-01 6.8578229e+00 0.0000000e+00 
1.0000000e+00 6.8000002e+00 0.0000000e+00 
1.7445621e-01 6.8769779e+00 0.0000000e+00 
6.7736709e-01 6.7575765e+00 0.0000000e+00 
3.4595537e-01 6.7778087e+00 0.0000000e+00 
8.3462298e-01 6.6689000e+00 0.0000000e+00 
0.0000000e+00 6.8000002e+00 0.0000000e+00 
5.0501287e-01 6.6597099e+00 0.0000000e+00 
1.0000000e+00 6.5999999e+00 0.0000000e+00 
1.8097465e-01 6.6789780e+00 0.0000000e+00 
6.6962856e-01 6.5595260e+00 0.0000000e+00 
3.2066780e-01 6.5871606e+00 0.0000000e+00 
8.3965176e-01 6.4710097e+00 0.0000000e+00 
0.0000000e+00 6.5999999e+00 0.0000000e+00 
4.8932999e-01 6.4914999e+00 0.0000000e+00 
1.0000000e+00 6.4000001e+00 0.0000000e+00 
1.4997987e-01 6.4839683e+00 0.0000000e+00 
6.6350561e-01 6.3954086e+00 0.0000000e+00 
3.2280096e-01 6.3877153e+00 0.0000000e+00 
8.3153027e-01 6.2889266e+00 0.0000000e+00 
0.0000000e+00 6.4000001e+00 0.0000000e+00 
4.9695736e-01 6.2927222e+00 0.0000000e+00 
1.0000000e+00 6.1999998e+00 0.0000000e+00 
1.6071729e-01 6.2864423e+00 0.0000000e+00 
6.5358984e-01 6.1999998e+00 0.0000000e+00 
3.3329538e-01 6.1896143e+00 0.0000000e+00 
8.1998920e-01 6.0895286e+00 0.0000000e+00 
0.0000000e+00 6.1999998e+00 0.0000000e+00 
4.8038477e-01 6.0999999e+00 0.0000000e+00 
1.7059118e-01 6.0888028e+00 0.0000000e+00 
1.0000000e+00 6.0000000e+00 0.0000000e+00 
6.5358984e-01 6.0000000e+00 0.0000000e+00 
3.0717969e-01 6.0000000e+00 0.0000000e+00 
8.2679492e-01 5.9000001e+00 0.0000000e+00 
0.0000000e+00 6.0000000e+00 0.0000000e+00 
4.8038477e-01 5.9000001e+00 0.0000000e+00 
1.3397460e-01 5.9000001e+00 0.0000000e+00 
1.0000000e+00 5.8000002e+00 0.0000000e+00 
6.5358984e-01 5.8000002e+00 0.0000000e+00 
3.0717969e-01 5.8000002e+00 0.0000000e+00 
8.2679492e-01 5.6999998e+00 0.0000000e+00 
0.0000000e+00 5.8000002e+00 0.0000000e+00 
4.8038477e-01 5.6999998e+00 0.0000000e+00 
1.3397460e-01 5.6999998e+00 0.0000000e+00 
1.0000000e+00 5.5999999e+00 0.0000000e+00 
6.5358984e-01 5.5999999e+00 0.0000000e+00 
3.2231969e-01 5.6385756e+00 0.0000000e+00 
8.2679492e-01 5.5000000e+00 0.0000000e+00 
0.0000000e+00 5.5999999e+00 0.0000000e+00 
4.8038477e-01 5.5000000e+00 0.0000000e+00 
1.7059118e-01 5.5111971e+00 0.0000000e+00 
1.0000000e+00 5.4000001e+00 0.0000000e+00 
6.5358984e-01 5.4000001e+00 0.0000000e+00 
3.3329538e-01 5.3896141e+00 0.0000000e+00 
8.2679492e-01 5.3000002e+00 0.0000000e+00 
0.0000000e+00 5.4000001e+00 0.0000000e+00 
4.8038477e-01 5.3000002e+00 0.0000000e+00 
1.7059118e-01 5.2888031e+00 0.0000000e+00 
1.0000000e+00 5.1999998e+00 0.0000000e+00 
6.5358984e-01 5.1999998e+00 0.0000000e+00 
3.0717969e-01 5.1999998e+00 0.0000000e+00 
8.2679492e-01 5.0999999e+00 0.0000000e+00 
0.0000000e+00 5.1999998e+00 0.0000000e+00 
4.8038477e-01 5.0999999e+00 0.0000000e+00 
1.3397460e-01 5.0999999e+00 0.0000000e+00 
1.0000000e+00 5.0000000e+00 0.0000000e+00 
6.5358984e-01 5.0000000e+00 0.0000000e+00 
3.0717969e-01 5.0000000e+00 0.0000000e+00 
0.0000000e+00 5.0000000e+00 0.0000000e+00 
8.2679492e-01 4.9000001e+00 0.0000000e+00 
4.8038477e-01 4.9000001e+00 0.0000000e+00 
1.3397460e-01 4.9000001e+00 0.0000000e+00 
1.0000000e+00 4.8000002e+00 0.0000000e+00 
6.5358984e-01 4.8000002e+00 0.0000000e+00 
3.0717969e-01 4.8000002e+00 0.0000000e+00 
0.0000000e+00 4.8000002e+00 0.0000000e+00 
8.2679492e-01 4.6999998e+00 0.0000000e+00 
4.8038477e-01 4.6999998e+00 0.0000000e+00 
1.3397460e-01 4.6999998e+00 0.0000000e+00 
1.0000000e+00 4.5999999e+00 0.0000000e+00 
6.5358984e-01 4.5999999e+00 0.0000000e+00 
3.0717969e-01 4.5999999e+00 0.0000000e+00 
0.0000000e+00 4.5999999e+00 0.0000000e+00 
8.2679492e-01 4.5000000e+00 0.0000000e+00 
4.8038477e-01 4.5000000e+00 0.0000000e+00 
1.3397460e-01 4.5000000e+00 0.0000000e+00 
1.0000000e+00 4.4000001e+00 0.0000000e+00 
6.5358984e-01 4.4000001e+00 0.0000000e+00 
3.0717969e-01 4.4000001e+00 0.0000000e+00 
8.3046603e-01 4.3165317e+00 0.0000000e+00 
0.0000000e+00 4.4000001e+00 0.0000000e+00 
4.8038477e-01 4.3000002e+00 0.0000000e+00 
1.7059118e-01 4.3111973e+00 0.0000000e+00 
6.6123927e-01 4.2184782e+00 0.0000000e+00 
1.0000000e+00 4.1999998e+00 0.0000000e+00 
3.3329538e-01 4.2103858e+00 0.0000000e+00 
8.3268768e-01 4.1176395e+00 0.0000000e+00 
0.0000000e+00 4.1999998e+00 0.0000000e+00 
4.9695736e-01 4.1072779e+00 0.0000000e+00 
1.6071729e-01 4.1135573e+00 0.0000000e+00 
1.0000000e+00 4.0000000e+00 0.0000000e+00 
3.2280096e-01 4.0122848e+00 0.0000000e+00 
6.4947557e-01 3.9632084e+00 0.0000000e+00 
8.4590596e-01 3.9203768e+00 0.0000000e+00 
0.0000000e+00 4.0000000e+00 0.0000000e+00 
4.7627035e-01 3.9377375e+00 0.0000000e+00 
1.4997987e-01 3.9160316e+00 0.0000000e+00 
1.0000000e+00 3.8000000e+00 0.0000000e+00 
3.2066780e-01 3.8128395e+00 0.0000000e+00 
5.1165128e-01 3.7661045e+00 0.0000000e+00 
0.0000000e+00 3.8000000e+00 0.0000000e+00 
7.4880123e-01 3.7184730e+00 0.0000000e+00 
1.8097465e-01 3.7210221e+00 0.0000000e+00 
1.0000000e+00 3.5999999e+00 0.0000000e+00 
3.4595537e-01 3.6221914e+00 0.0000000e+00 
5.2873749e-01 3.5421770e+00 0.0000000e+00 
0.0000000e+00 3.5999999e+00 0.0000000e+00 
1.7445621e-01 3.5230222e+00 0.0000000e+00 
7.1247655e-01 3.4632580e+00 0.0000000e+00 
1.0000000e+00 3.4000001e+00 0.0000000e+00 
3.4690949e-01 3.4226651e+00 0.0000000e+00 
0.0000000e+00 3.4000001e+00 0.0000000e+00 
5.1989859e-01 3.3223066e+00 0.0000000e+00 
8.2679492e-01 3.3000000e+00 0.0000000e+00 
1.7356591e-01 3.3231418e+00 0.0000000e+00 
1.0000000e+00 3.2000000e+00 0.0000000e+00 
3.4647828e-01 3.2226951e+00 0.0000000e+00 
6.5358984e-01 3.2000000e+00 0.0000000e+00 
5.0604391e-01 3.1465836e+00 0.0000000e+00 
[...]
POINT_DATA 340
FIELD FieldData 3
DISPLACEMENT 3 340  float
-3.0651384e+01 2.6364117e+00 0.0000000e+00 
-2.9814510e+01 2.6358492e+00 0.0000000e+00 
-3.0651194e+01 1.7996737e+00 0.0000000e+00 
-2.9853241e+01 1.5048503e+00 0.0000000e+00 
-2.9137167e+01 1.9734131e+00 0.0000000e+00 
-3.0651148e+01 9.6315545e-01 0.0000000e+00 
-2.8977139e+01 2.6351779e+00 0.0000000e+00 
-2.9926598e+01 5.4474574e-01 0.0000000e+00 
-2.8938347e+01 1.1128993e+00 0.0000000e+00 
-2.8282667e+01 1.9757278e+00 0.0000000e+00 
-3.0651571e+01 1.2678197e-01 0.0000000e+00 
-2.8139517e+01 2.6339037e+00 0.0000000e+00 
-2.9119638e+01 1.4894263e-01 0.0000000e+00 
-2.9873968e+01 -3.8011536e-01 0.0000000e+00 
-2.7847012e+01 1.2611423e+00 0.0000000e+00 
-2.8246609e+01 5.2764934e-01 0.0000000e+00 
-2.7445124e+01 1.9928840e+00 0.0000000e+00 
-3.0652418e+01 -7.0981526e-01 0.0000000e+00 
-2.7301954e+01 2.6317582e+00 0.0000000e+00 
-2.8476437e+01 -2.9118642e-01 0.0000000e+00 
-2.9076763e+01 -8.4539431e-01 0.0000000e+00 
-2.7010517e+01 1.2783284e+00 0.0000000e+00 
-2.7382759e+01 4.8045948e-01 0.0000000e+00 
-2.6608551e+01 2.0130899e+00 0.0000000e+00 
-3.0653383e+01 -1.5466207e+00 0.0000000e+00 
-2.6464861e+01 2.6284611e+00 0.0000000e+00 
-2.9816460e+01 -1.5466355e+00 0.0000000e+00 
-2.7647648e+01 -5.9132779e-01 0.0000000e+00 
-2.8979155e+01 -1.5465027e+00 0.0000000e+00 
-2.6571718e+01 5.6780159e-01 0.0000000e+00 
-2.6974405e+01 -1.6193520e-01 0.0000000e+00 
-2.6173576e+01 1.2992424e+00 0.0000000e+00 
-2.8141375e+01 -1.5458853e+00 0.0000000e+00 
-2.5772343e+01 2.0276680e+00 0.0000000e+00 
-2.5629387e+01 2.6235001e+00 0.0000000e+00 
-2.6882946e+01 -8.1927812e-01 0.0000000e+00 
-2.6138502e+01 -1.3774425e-01 0.0000000e+00 
-2.5735590e+01 5.9157878e-01 0.0000000e+00 
-2.7303535e+01 -1.5446476e+00 0.0000000e+00 
-2.5339594e+01 1.3142210e+00 0.0000000e+00 
-2.6045212e+01 -8.1750298e-01 0.0000000e+00 
-2.4794662e+01 2.6174877e+00 0.0000000e+00 
-2.6465193e+01 -1.5423285e+00 0.0000000e+00 
-2.5302582e+01 -1.1857080e-01 0.0000000e+00 
-2.4900997e+01 6.0691154e-01 0.0000000e+00 
-2.4456253e+01 1.5206920e+00 0.0000000e+00 
-2.5628170e+01 -1.5387014e+00 0.0000000e+00 
-2.3962893e+01 2.6104369e+00 0.0000000e+00 
-2.4865662e+01 -8.2464582e-01 0.0000000e+00 
-2.4470816e+01 -9.2927203e-02 0.0000000e+00 
-2.4069057e+01 6.3178045e-01 0.0000000e+00 
-2.3617233e+01 1.5619415e+00 0.0000000e+00 
-2.4793392e+01 -1.5339620e+00 0.0000000e+00 
-2.4033430e+01 -8.0425346e-01 0.0000000e+00 
-2.3639620e+01 -7.4508354e-02 0.0000000e+00 
-2.3133841e+01 2.6018414e+00 0.0000000e+00 
-2.3239902e+01 6.4415240e-01 0.0000000e+00 
-2.3961262e+01 -1.5279379e+00 0.0000000e+00 
-2.2778357e+01 1.6081339e+00 0.0000000e+00 
-2.3204212e+01 -7.7370065e-01 0.0000000e+00 
-2.2815111e+01 -4.5724388e-02 0.0000000e+00 
-2.2308254e+01 2.5916264e+00 0.0000000e+00 
-2.2414934e+01 6.7186356e-01 0.0000000e+00 
-2.3132109e+01 -1.5207137e+00 0.0000000e+00 
-2.1963903e+01 1.5853120e+00 0.0000000e+00 
-2.2366385e+01 -7.5882655e-01 0.0000000e+00 
-2.1991095e+01 -2.7488885e-02 0.0000000e+00 
-2.1486649e+01 2.5800836e+00 0.0000000e+00 
-2.1594648e+01 6.7638588e-01 0.0000000e+00 
-2.2306448e+01 -1.5122679e+00 0.0000000e+00 
-2.1139444e+01 1.6113290e+00 0.0000000e+00 
-2.1545757e+01 -7.0847642e-01 0.0000000e+00 
-2.1182173e+01 2.1815902e-02 0.0000000e+00 
-2.0669689e+01 2.5668576e+00 0.0000000e+00 
-2.0784342e+01 7.2223616e-01 0.0000000e+00 
-2.1484833e+01 -1.5027223e+00 0.0000000e+00 
-2.0349636e+01 1.5377271e+00 0.0000000e+00 
-2.0748070e+01 -6.6138196e-01 0.0000000e+00 
-2.0374788e+01 5.9284106e-02 0.0000000e+00 
-2.0667768e+01 -1.4920650e+00 0.0000000e+00 
-1.9857328e+01 2.5526397e+00 0.0000000e+00 
-2.0009094e+01 6.2184906e-01 0.0000000e+00 
-2.0069279e+01 -6.8473661e-01 0.0000000e+00 
-1.9579483e+01 1.3763955e+00 0.0000000e+00 
-1.9574633e+01 -5.3468958e-02 0.0000000e+00 
-1.9126896e+01 1.9306623e+00 0.0000000e+00 
-1.9855558e+01 -1.4799464e+00 0.0000000e+00 
-1.9211582e+01 6.5961254e-01 0.0000000e+00 
-1.9051456e+01 2.5364134e+00 0.0000000e+00 
-1.9273727e+01 -7.5811833e-01 0.0000000e+00 
-1.8859350e+01 1.1814722e+00 0.0000000e+00 
-1.8918093e+01 -7.5246029e-02 0.0000000e+00 
-1.8508335e+01 1.8707603e+00 0.0000000e+00 
-1.9049009e+01 -1.4663117e+00 0.0000000e+00 
-1.8430363e+01 5.1492727e-01 0.0000000e+00 
-1.8251350e+01 2.5182762e+00 0.0000000e+00 
-1.8537527e+01 -7.6334214e-01 0.0000000e+00 
-1.8067524e+01 1.1845936e+00 0.0000000e+00 
-1.8151402e+01 -7.2957419e-02 0.0000000e+00 
-1.7706404e+01 1.8767471e+00 0.0000000e+00 
-1.8248705e+01 -1.4514663e+00 0.0000000e+00 
-1.7676222e+01 6.4514393e-01 0.0000000e+00 
-1.7458185e+01 2.4985197e+00 0.0000000e+00 
-1.7754950e+01 -7.5170708e-01 0.0000000e+00 
-1.7281588e+01 1.2261449e+00 0.0000000e+00 
-1.7360020e+01 -7.3039316e-02 0.0000000e+00 
-1.6936338e+01 1.8369626e+00 0.0000000e+00 
-1.7455238e+01 -1.4354529e+00 0.0000000e+00 
-1.6894787e+01 5.4971826e-01 0.0000000e+00 
-1.6672367e+01 2.4772694e+00 0.0000000e+00 
-1.6973303e+01 -7.1595931e-01 0.0000000e+00 
-1.6504303e+01 1.1874425e+00 0.0000000e+00 
-1.6611094e+01 -1.6774172e-01 0.0000000e+00 
-1.6163683e+01 1.8410194e+00 0.0000000e+00 
-1.6669292e+01 -1.4185321e+00 0.0000000e+00 
-1.6237190e+01 4.8716509e-01 0.0000000e+00 
-1.5894558e+01 2.4542572e+00 0.0000000e+00 
-1.6211637e+01 -8.2550997e-01 0.0000000e+00 
-1.5866081e+01 1.1563963e+00 0.0000000e+00 
-1.5835049e+01 -1.5416637e-01 0.0000000e+00 
-1.5459646e+01 1.7945690e+00 0.0000000e+00 
-1.5890893e+01 -1.3995914e+00 0.0000000e+00 
-1.5467785e+01 5.1453412e-01 0.0000000e+00 
-1.5125452e+01 2.4297600e+00 0.0000000e+00 
-1.5447379e+01 -7.7192283e-01 0.0000000e+00 
-1.5113816e+01 1.1090267e+00 0.0000000e+00 
-1.5072599e+01 -1.0881640e-01 0.0000000e+00 
-1.4696907e+01 1.7332333e+00 0.0000000e+00 
-1.5121444e+01 -1.3799791e+00 0.0000000e+00 
-1.4730245e+01 4.4939172e-01 0.0000000e+00 
-1.4691266e+01 -7.2159046e-01 0.0000000e+00 
-1.4365383e+01 2.4039304e+00 0.0000000e+00 
-1.4352947e+01 1.0992818e+00 0.0000000e+00 
-1.4351722e+01 -2.0224339e-01 0.0000000e+00 
-1.3981133e+01 1.7413280e+00 0.0000000e+00 
-1.4361053e+01 -1.3596582e+00 0.0000000e+00 
-1.3973969e+01 4.4762966e-01 0.0000000e+00 
-1.3978632e+01 -8.4600359e-01 0.0000000e+00 
-1.3614949e+01 2.3761010e+00 0.0000000e+00 
-1.3601786e+01 1.0887424e+00 0.0000000e+00 
-1.3600375e+01 -1.9564158e-01 0.0000000e+00 
-1.3235391e+01 1.7216154e+00 0.0000000e+00 
-1.3609848e+01 -1.3370059e+00 0.0000000e+00 
-1.3227739e+01 4.4571289e-01 0.0000000e+00 
-1.3232762e+01 -8.3070773e-01 0.0000000e+00 
-1.2874864e+01 2.3466871e+00 0.0000000e+00 
-1.2860973e+01 1.0774794e+00 0.0000000e+00 
-1.3001288e+01 -1.3438384e-01 0.0000000e+00 
-1.2500210e+01 1.7007039e+00 0.0000000e+00 
-1.2869721e+01 -1.3132478e+00 0.0000000e+00 
-1.2492132e+01 4.4343182e-01 0.0000000e+00 
-1.2537197e+01 -6.8204576e-01 0.0000000e+00 
-1.2145477e+01 2.3157260e+00 0.0000000e+00 
-1.2130949e+01 1.0654587e+00 0.0000000e+00 
-1.2091078e+01 -8.6899854e-02 0.0000000e+00 
-1.1775895e+01 1.6786305e+00 0.0000000e+00 
-1.2140151e+01 -1.2896698e+00 0.0000000e+00 
-1.1767360e+01 4.4041246e-01 0.0000000e+00 
-1.1731524e+01 -6.6477823e-01 0.0000000e+00 
-1.1427232e+01 2.2831061e+00 0.0000000e+00 
-1.1411862e+01 1.0527056e+00 0.0000000e+00 
-1.1410321e+01 -1.7396435e-01 0.0000000e+00 
-1.1062931e+01 1.6552677e+00 0.0000000e+00 
-1.1421851e+01 -1.2649027e+00 0.0000000e+00 
-1.1054096e+01 4.3784374e-01 0.0000000e+00 
-1.1060219e+01 -7.7855271e-01 0.0000000e+00 
-1.0720636e+01 2.2486925e+00 0.0000000e+00 
-1.0704554e+01 1.0392803e+00 0.0000000e+00 
-1.0703183e+01 -1.6612376e-01 0.0000000e+00 
-1.0715680e+01 -1.2377523e+00 0.0000000e+00 
-1.0361905e+01 1.6305968e+00 0.0000000e+00 
-1.0352706e+01 4.3502107e-01 0.0000000e+00 
-1.0359841e+01 -7.5995320e-01 0.0000000e+00 
-1.0026248e+01 2.2123756e+00 0.0000000e+00 
-1.0009315e+01 1.0250446e+00 0.0000000e+00 
-1.0008088e+01 -1.5784058e-01 0.0000000e+00 
-1.0022177e+01 -1.2098726e+00 0.0000000e+00 
-9.6732349e+00 1.6044115e+00 0.0000000e+00 
-9.6635532e+00 4.3194363e-01 0.0000000e+00 
-9.6713848e+00 -7.4016660e-01 0.0000000e+00 
-9.3445787e+00 2.1738353e+00 0.0000000e+00 
-9.3265934e+00 1.0098315e+00 0.0000000e+00 
-9.3253794e+00 -1.4917022e-01 0.0000000e+00 
-9.3401251e+00 -1.1805844e+00 0.0000000e+00 
-8.9974709e+00 1.5764028e+00 0.0000000e+00 
-8.9871120e+00 4.2852604e-01 0.0000000e+00 
-8.9953279e+00 -7.1966386e-01 0.0000000e+00 
-8.6762104e+00 2.1326208e+00 0.0000000e+00 
-8.6570644e+00 9.9341607e-01 0.0000000e+00 
-8.6555672e+00 -1.4012475e-01 0.0000000e+00 
-8.3897495e+00 1.5608675e+00 0.0000000e+00 
-8.6715908e+00 -1.1491399e+00 0.0000000e+00 
-8.3242636e+00 4.2459905e-01 0.0000000e+00 
-8.3677349e+00 -5.7953990e-01 0.0000000e+00 
-8.0617905e+00 1.0019941e+00 0.0000000e+00 
-8.0223932e+00 2.0879135e+00 0.0000000e+00 
-8.0327826e+00 -4.8060678e-02 0.0000000e+00 
-7.7450185e+00 1.5351778e+00 0.0000000e+00 
-8.0164566e+00 -1.1174834e+00 0.0000000e+00 
-7.6992993e+00 4.7190151e-01 0.0000000e+00 
-7.7265282e+00 -5.9069759e-01 0.0000000e+00 
-7.3845167e+00 2.0390415e+00 0.0000000e+00 
-7.3979850e+00 -7.3616169e-02 0.0000000e+00 
-7.2442956e+00 9.3914527e-01 0.0000000e+00 
-7.1225972e+00 1.5409460e+00 0.0000000e+00 
-7.3753142e+00 -1.0831556e+00 0.0000000e+00 
-7.1626325e+00 4.0255848e-01 0.0000000e+00 
-7.1007676e+00 -6.0282719e-01 0.0000000e+00 
-6.7632723e+00 1.9840251e+00 0.0000000e+00 
-6.7745810e+00 -7.1838014e-02 0.0000000e+00 
-6.6311369e+00 5.0395638e-01 0.0000000e+00 
-6.7512088e+00 -1.0457394e+00 0.0000000e+00 
-6.4938526e+00 1.2098621e+00 0.0000000e+00 
-6.4974151e+00 -4.8682648e-01 0.0000000e+00 
-6.1587558e+00 1.9292606e+00 0.0000000e+00 
-6.1939926e+00 9.0275491e-03 0.0000000e+00 
-5.9568243e+00 5.4031646e-01 0.0000000e+00 
-6.1456432e+00 -1.0079409e+00 0.0000000e+00 
-5.9050288e+00 -4.8413798e-01 0.0000000e+00 
-5.7336702e+00 1.0605538e+00 0.0000000e+00 
-5.5779305e+00 1.8726118e+00 0.0000000e+00 
-5.6069112e+00 1.6755540e-02 0.0000000e+00 
-5.5597215e+00 -9.6745592e-01 0.0000000e+00 
-5.3211570e+00 5.0081825e-01 0.0000000e+00 
-5.2759314e+00 1.3518655e+00 0.0000000e+00 
-5.3270178e+00 -4.6363658e-01 0.0000000e+00 
-5.0143409e+00 1.8046048e+00 0.0000000e+00 
-5.0392580e+00 1.9798324e-02 0.0000000e+00 
-4.9829712e+00 8.5545176e-01 0.0000000e+00 
-4.8301516e+00 4.5247567e-01 0.0000000e+00 
-4.9951410e+00 -9.2494243e-01 0.0000000e+00 
-4.7224355e+00 1.3021982e+00 0.0000000e+00 
-4.7703729e+00 -4.4086677e-01 0.0000000e+00 
-4.4731894e+00 1.7329618e+00 0.0000000e+00 
-4.4417906e+00 8.2410812e-01 0.0000000e+00 
-4.4258409e+00 1.6471148e-01 0.0000000e+00 
-4.4520001e+00 -8.8059270e-01 0.0000000e+00 
-4.1919727e+00 1.2490606e+00 0.0000000e+00 
-4.1709847e+00 -4.0047371e-01 0.0000000e+00 
-3.9557142e+00 1.6570141e+00 0.0000000e+00 
-3.9317257e+00 6.4439964e-01 0.0000000e+00 
-3.8864818e+00 2.4321759e-02 0.0000000e+00 
-3.9349024e+00 -8.3470857e-01 0.0000000e+00 
-3.6870184e+00 1.1947805e+00 0.0000000e+00 
-3.6702251e+00 -3.8836604e-01 0.0000000e+00 
-3.5640466e+00 3.4224045e-01 0.0000000e+00 
-3.4654820e+00 1.5762960e+00 0.0000000e+00 
-3.4288168e+00 7.5457239e-01 0.0000000e+00 
-3.4202783e+00 -5.7427254e-02 0.0000000e+00 
-3.4418473e+00 -7.8645825e-01 0.0000000e+00 
-3.2078197e+00 1.1331235e+00 0.0000000e+00 
-3.1835537e+00 3.4126189e-01 0.0000000e+00 
-3.1883492e+00 -3.6061302e-01 0.0000000e+00 
-3.0007229e+00 1.4894639e+00 0.0000000e+00 
-2.9623897e+00 7.1579772e-01 0.0000000e+00 
-2.9518661e+00 -4.9522910e-02 0.0000000e+00 
-2.9743068e+00 -7.3623556e-01 0.0000000e+00 
-2.7559843e+00 1.0679656e+00 0.0000000e+00 
-2.7300658e+00 3.2449526e-01 0.0000000e+00 
-2.7338135e+00 -3.3196798e-01 0.0000000e+00 
-2.5643830e+00 1.3969858e+00 0.0000000e+00 
-2.5236869e+00 6.7367172e-01 0.0000000e+00 
-2.5122440e+00 -4.2722028e-02 0.0000000e+00 
-2.5344179e+00 -6.8470401e-01 0.0000000e+00 
-2.3330901e+00 9.9834287e-01 0.0000000e+00 
-2.3050547e+00 3.0627954e-01 0.0000000e+00 
-2.3106923e+00 -3.8306823e-01 0.0000000e+00 
-2.1579070e+00 1.2984272e+00 0.0000000e+00 
-2.1148667e+00 6.2811631e-01 0.0000000e+00 
-2.1019878e+00 -3.4755100e-02 0.0000000e+00 
-2.1233628e+00 -6.2870294e-01 0.0000000e+00 
-1.9409769e+00 9.2419851e-01 0.0000000e+00 
-1.9110384e+00 2.8617957e-01 0.0000000e+00 
-1.9161999e+00 -3.4984943e-01 0.0000000e+00 
-1.7828041e+00 1.1935292e+00 0.0000000e+00 
-1.7375501e+00 5.7914454e-01 0.0000000e+00 
-1.7235725e+00 -2.7918523e-02 0.0000000e+00 
-1.7455180e+00 -5.7168967e-01 0.0000000e+00 
-1.6076076e+00 8.3069605e-01 0.0000000e+00 
-1.5497119e+00 2.6416451e-01 0.0000000e+00 
-1.5542401e+00 -3.1551325e-01 0.0000000e+00 
-1.4408572e+00 1.0846243e+00 0.0000000e+00 
-1.3939716e+00 5.2736890e-01 0.0000000e+00 
-1.3785886e+00 -2.1873577e-02 0.0000000e+00 
-1.4007589e+00 -5.1298797e-01 0.0000000e+00 
-1.2837530e+00 7.7368093e-01 0.0000000e+00 
-1.2220857e+00 2.4000345e-01 0.0000000e+00 
-1.2265048e+00 -2.8114304e-01 0.0000000e+00 
-1.1231415e+00 4.8726735e-01 0.0000000e+00 
-1.1336836e+00 9.6784931e-01 0.0000000e+00 
-1.0682639e+00 -1.5982712e-02 0.0000000e+00 
-1.0923867e+00 -4.5204931e-01 0.0000000e+00 
-9.9186766e-01 6.8281895e-01 0.0000000e+00 
-9.7052187e-01 2.3329931e-01 0.0000000e+00 
-9.4707948e-01 -1.9763201e-01 0.0000000e+00 
-8.4712940e-01 4.3335834e-01 0.0000000e+00 
-8.6145538e-01 8.4647888e-01 0.0000000e+00 
-8.0693680e-01 1.9766401e-02 0.0000000e+00 
-7.7476662e-01 6.2856120e-01 0.0000000e+00 
-8.1800383e-01 -3.9269504e-01 0.0000000e+00 
-7.1273559e-01 2.3216593e-01 0.0000000e+00 
-6.9241160e-01 -1.7969979e-01 0.0000000e+00 
-6.1611235e-01 3.9599678e-01 0.0000000e+00 
-6.2742704e-01 7.1990526e-01 0.0000000e+00 
-5.6787366e-01 1.7535308e-02 0.0000000e+00 
-5.8097738e-01 -3.3057615e-01 0.0000000e+00 
-5.3748494e-01 5.3679299e-01 0.0000000e+00 
-4.9048921e-01 1.9532831e-01 0.0000000e+00 
-4.7165066e-01 -1.2915459e-01 0.0000000e+00 
-4.1192889e-01 3.2961223e-01 0.0000000e+00 
-4.3050811e-01 5.8389938e-01 0.0000000e+00 
-3.7158409e-01 2.9713433e-02 0.0000000e+00 
-3.8186228e-01 -2.6895651e-01 0.0000000e+00 
-3.5360789e-01 4.3232918e-01 0.0000000e+00 
-3.0499226e-01 1.5853539e-01 0.0000000e+00 
-2.9002088e-01 -1.0355327e-01 0.0000000e+00 
-2.4835224e-01 2.5601101e-01 0.0000000e+00 
-2.7810413e-01 4.4199497e-01 0.0000000e+00 
-2.0875371e-01 2.5095075e-02 0.0000000e+00 
-2.2124128e-01 -2.0587628e-01 0.0000000e+00 
-2.0041025e-01 3.0689448e-01 0.0000000e+00 
-1.5101354e-01 1.1562565e-01 0.0000000e+00 
-1.4638589e-01 -7.4393846e-02 0.0000000e+00 
-1.1561806e-01 1.6630727e-01 0.0000000e+00 
-1.6488624e-01 2.9107589e-01 0.0000000e+00 
-8.6695932e-02 1.7289223e-02 0.0000000e+00 
-1.1335322e-01 1.9449548e-01 0.0000000e+00 
-9.9015258e-02 -1.4199610e-01 0.0000000e+00 
-5.3842872e-02 6.9680877e-02 0.0000000e+00 
-3.5370730e-02 -3.7333000e-02 0.0000000e+00 
-5.0830446e-02 8.8771679e-02 0.0000000e+00 
-8.6982287e-02 1.3740879e-01 0.0000000e+00 
-9.6486714e-03 1.0292615e-02 0.0000000e+00 
-2.4962362e-02 -5.7552893e-02 0.0000000e+00 
0.0000000e+00 0.0000000e+00 0.0000000e+00 
0.0000000e+00 0.0000000e+00 0.0000000e+00 
0.0000000e+00 0.0000000e+00 0.0000000e+00 
0.0000000e+00 0.0000000e+00 0.0000000e+00 
0.0000000e+00 0.0000000e+00 0.0000000e+00 
0.0000000e+00 0.0000000e+00 0.0000000e+00 
REACTION 3 340  float
9.8596048e-11 5.2079230e-11 0.0000000e+00 
-1.7550050e-10 -9.2967412e-11 0.0000000e+00 
7.4333428e-11 1.2734347e-10 0.0000000e+00 
1.6005863e-10 -3.3138381e-11 0.0000000e+00 
-1.0312640e-10 2.6332714e-11 0.0000000e+00 
1.4754420e-11 -1.0915713e-11 0.0000000e+00 
-4.9531934e-11 -3.7006842e-11 0.0000000e+00 
-5.6014926e-10 -7.0777162e-11 0.0000000e+00 
-4.5169912e-10 -2.0644819e-11 0.0000000e+00 
-4.7622462e-12 -1.6058266e-11 0.0000000e+00 
1.1560530e-11 -2.4102320e-10 0.0000000e+00 
1.0384404e-10 -9.7699626e-11 0.0000000e+00 
1.9712765e-10 2.1795898e-11 0.0000000e+00 
1.9187141e-10 2.4412472e-11 0.0000000e+00 
-1.4588153e-10 3.0155967e-10 0.0000000e+00 
8.1780627e-10 -3.5994319e-11 0.0000000e+00 
-8.4817486e-11 -2.1094593e-10 0.0000000e+00 
2.2517899e-10 8.4405372e-11 0.0000000e+00 
-2.4185276e-10 9.4402708e-11 0.0000000e+00 
-1.2418511e-10 -9.1990415e-11 0.0000000e+00 
-1.0870593e-10 3.5825565e-11 0.0000000e+00 
6.0098415e-10 1.6559909e-10 0.0000000e+00 
-2.5910651e-10 9.1695540e-11 0.0000000e+00 
-3.6270631e-10 -9.1432639e-11 0.0000000e+00 
-8.1762153e-11 1.6960655e-11 0.0000000e+00 
8.1374907e-11 -1.0112444e-10 0.0000000e+00 
-1.7566038e-10 -4.3709036e-11 0.0000000e+00 
-7.8124174e-11 -8.8455465e-11 0.0000000e+00 
1.9443291e-10 1.4561685e-11 0.0000000e+00 
1.7990942e-10 -2.6366198e-10 0.0000000e+00 
-4.7226933e-10 1.7195845e-10 0.0000000e+00 
2.5746516e-10 5.1912252e-11 0.0000000e+00 
2.1969271e-10 5.0476956e-11 0.0000000e+00 
2.4992275e-10 -4.7094773e-11 0.0000000e+00 
-3.5283429e-10 6.2158279e-11 0.0000000e+00 
-4.3275605e-10 -1.6331114e-10 0.0000000e+00 
-1.0658763e-10 -4.2021497e-11 0.0000000e+00 
1.3429258e-12 -3.4414427e-10 0.0000000e+00 
1.6108004e-10 -4.3728576e-11 0.0000000e+00 
3.8781423e-11 1.0874146e-10 0.0000000e+00 
-3.1777603e-10 1.6270008e-10 0.0000000e+00 
-1.4626433e-10 1.5205615e-10 0.0000000e+00 
5.8510352e-10 1.2056489e-10 0.0000000e+00 
5.9982597e-10 9.6957109e-11 0.0000000e+00 
-4.0672177e-10 1.6397728e-10 0.0000000e+00 
4.4622084e-12 -3.4248160e-11 0.0000000e+00 
5.8477667e-12 1.0589929e-10 0.0000000e+00 
5.8431482e-11 -6.4268590e-11 0.0000000e+00 
1.7500401e-10 1.3904611e-10 0.0000000e+00 
3.3931258e-10 -4.7805315e-11 0.0000000e+00 
-1.5909052e-11 6.3451466e-11 0.0000000e+00 
2.7391422e-12 -1.4864554e-11 0.0000000e+00 
-3.2849101e-10 2.7796432e-11 0.0000000e+00 
-2.2549607e-10 -1.5297985e-11 0.0000000e+00 
3.0128433e-10 -7.4320994e-11 0.0000000e+00 
1.3540813e-10 7.5164763e-11 0.0000000e+00 
-2.2851054e-11 -1.5427126e-10 0.0000000e+00 
-1.7990942e-11 -3.3253400e-12 0.0000000e+00 
-3.6421710e-10 9.9959152e-11 0.0000000e+00 
1.9797497e-11 -3.6010306e-11 0.0000000e+00 
5.0464877e-10 -4.4138915e-11 0.0000000e+00 
-3.1821656e-11 -1.4927082e-10 0.0000000e+00 
-3.8000536e-10 2.5782754e-10 0.0000000e+00 
-2.1689317e-10 2.2112090e-11 0.0000000e+00 
2.6698288e-10 1.5160140e-10 0.0000000e+00 
2.6330937e-10 -1.1991830e-10 0.0000000e+00 
-4.1799808e-10 3.7509551e-11 0.0000000e+00 
1.4114931e-10 -1.0876633e-10 0.0000000e+00 
-1.5850787e-10 -1.2833112e-10 0.0000000e+00 
-2.0921220e-10 3.6379788e-12 0.0000000e+00 
1.9452528e-10 -1.5745627e-11 0.0000000e+00 
3.8871306e-10 2.2055247e-11 0.0000000e+00 
-2.9562131e-11 1.1152679e-10 0.0000000e+00 
1.4509993e-10 8.6338048e-11 0.0000000e+00 
-1.5433699e-10 -5.4072302e-11 0.0000000e+00 
-1.6626700e-11 -1.1402790e-10 0.0000000e+00 
-1.9291946e-10 7.3669071e-11 0.0000000e+00 
-4.1011461e-10 -1.0174972e-11 0.0000000e+00 
3.8581760e-10 2.1529445e-12 0.0000000e+00 
2.1468338e-10 2.6147973e-11 0.0000000e+00 
2.4301627e-10 -8.6743057e-11 0.0000000e+00 
-2.3354119e-10 2.8485658e-11 0.0000000e+00 
-4.2163251e-10 1.6576962e-11 0.0000000e+00 
-6.1106675e-13 2.1714186e-11 0.0000000e+00 
2.9923086e-10 -7.5559115e-11 0.0000000e+00 
-1.3081092e-11 -8.1193718e-11 0.0000000e+00 
2.5516300e-10 1.8417268e-11 0.0000000e+00 
-4.4202153e-10 -1.2753532e-10 0.0000000e+00 
7.4734885e-11 7.1395334e-11 0.0000000e+00 
-5.0222226e-10 1.0425083e-10 0.0000000e+00 
-8.3112184e-11 3.2969183e-11 0.0000000e+00 
5.5470295e-10 -3.6848746e-11 0.0000000e+00 
-4.6342929e-11 5.7298166e-11 0.0000000e+00 
1.2937207e-10 2.1600499e-12 0.0000000e+00 
1.9900170e-10 -2.8022029e-11 0.0000000e+00 
2.8003555e-10 -8.0490281e-11 0.0000000e+00 
-3.8907189e-10 3.5527137e-14 0.0000000e+00 
-5.2248517e-10 4.0607517e-11 0.0000000e+00 
4.3969806e-10 -7.6880724e-12 0.0000000e+00 
3.0030178e-10 1.1823431e-11 0.0000000e+00 
2.3182167e-10 1.4210855e-11 0.0000000e+00 
1.5569057e-10 1.2889245e-10 0.0000000e+00 
-7.1924688e-11 6.3664629e-12 0.0000000e+00 
-4.5242743e-10 -1.6268586e-10 0.0000000e+00 
-4.5521631e-10 -7.1366912e-11 0.0000000e+00 
-1.1455370e-10 -6.2840400e-11 0.0000000e+00 
1.6492319e-10 -3.9847237e-11 0.0000000e+00 
3.2029135e-10 3.4560799e-11 0.0000000e+00 
2.8869351e-11 1.2270363e-10 0.0000000e+00 