# vtk DataFile Version 4.0
vtk output
ASCII
DATASET UNSTRUCTURED_GRID
POINTS 340 float
1.0000000e+00 1.0000000e+01 0.0000000e+00 
1.0000000e+00 9.8000002e+00 0.0000000e+00 
8.0000001e-01 1.0000000e+01 0.0000000e+00 
7.2964472e-01 9.8093147e+00 0.0000000e+00 
8.4182751e-01 9.6382694e+00 0.0000000e+00 
6.0000002e-01 1.0000000e+01 0.0000000e+00 
1.0000000e+00 9.6000004e+00 0.0000000e+00 
5.0000000e-01 9.8267946e+00 0.0000000e+00 
6.3604087e-01 9.5908260e+00 0.0000000e+00 
8.4263843e-01 9.4342804e+00 0.0000000e+00 
4.0000001e-01 1.0000000e+01 0.0000000e+00 
1.0000000e+00 9.3999996e+00 0.0000000e+00 
4.0534732e-01 9.6340141e+00 0.0000000e+00 
2.7881753e-01 9.8140564e+00 0.0000000e+00 
6.7177695e-01 9.3303623e+00 0.0000000e+00 
4.9604306e-01 9.4256926e+00 0.0000000e+00 
8.4713864e-01 9.2343493e+00 0.0000000e+00 
2.0000000e-01 1.0000000e+01 0.0000000e+00 
1.0000000e+00 9.1999998e+00 0.0000000e+00 
3.0000001e-01 9.4803848e+00 0.0000000e+00 
1.6755788e-01 9.6235323e+00 0.0000000e+00 
6.7617422e-01 9.1307087e+00 0.0000000e+00 
4.8477495e-01 9.2195473e+00 0.0000000e+00 
8.5255039e-01 9.0345669e+00 0.0000000e+00 
0.0000000e+00 1.0000000e+01 0.0000000e+00 
1.0000000e+00 9.0000000e+00 0.0000000e+00 
0.0000000e+00 9.8000002e+00 0.0000000e+00 
2.2804837e-01 9.2825413e+00 0.0000000e+00 
0.0000000e+00 9.6000004e+00 0.0000000e+00 
5.0581944e-01 9.0259790e+00 0.0000000e+00 
3.3078760e-01 9.1219988e+00 0.0000000e+00 
6.8160146e-01 8.9308100e+00 0.0000000e+00 
0.0000000e+00 9.3999996e+00 0.0000000e+00 
8.5683817e-01 8.8346405e+00 0.0000000e+00 
1.0000000e+00 8.8000002e+00 0.0000000e+00 
1.7320508e-01 9.1000004e+00 0.0000000e+00 
3.3639798e-01 8.9224386e+00 0.0000000e+00 
5.1166874e-01 8.8261728e+00 0.0000000e+00 
0.0000000e+00 9.1999998e+00 0.0000000e+00 
6.8573916e-01 8.7312880e+00 0.0000000e+00 
1.7320508e-01 8.8999996e+00 0.0000000e+00 
1.0000000e+00 8.6000004e+00 0.0000000e+00 
0.0000000e+00 9.0000000e+00 0.0000000e+00 
3.4077987e-01 8.7225189e+00 0.0000000e+00 
5.1553297e-01 8.6263428e+00 0.0000000e+00 
7.3636049e-01 8.5193882e+00 0.0000000e+00 
0.0000000e+00 8.8000002e+00 0.0000000e+00 
1.0000000e+00 8.3999996e+00 0.0000000e+00 
1.7061394e-01 8.6176825e+00 0.0000000e+00 
3.4670532e-01 8.5231361e+00 0.0000000e+00 
5.2180642e-01 8.4266043e+00 0.0000000e+00 
7.4737626e-01 8.3175163e+00 0.0000000e+00 
0.0000000e+00 8.6000004e+00 0.0000000e+00 
1.7467257e-01 8.4178057e+00 0.0000000e+00 
3.5083947e-01 8.3232317e+00 0.0000000e+00 
1.0000000e+00 8.1999998e+00 0.0000000e+00 
5.2511263e-01 8.2268429e+00 0.0000000e+00 
0.0000000e+00 8.3999996e+00 0.0000000e+00 
7.5983411e-01 8.1149063e+00 0.0000000e+00 
1.8103610e-01 8.2179594e+00 0.0000000e+00 
3.5745192e-01 8.1241884e+00 0.0000000e+00 
1.0000000e+00 8.0000000e+00 0.0000000e+00 
5.3222626e-01 8.0272846e+00 0.0000000e+00 
0.0000000e+00 8.1999998e+00 0.0000000e+00 
7.5571120e-01 7.9173551e+00 0.0000000e+00 
1.8344399e-01 8.0151854e+00 0.0000000e+00 
3.6146736e-01 7.9243879e+00 0.0000000e+00 
1.0000000e+00 7.8000002e+00 0.0000000e+00 
5.3374660e-01 7.8279252e+00 0.0000000e+00 
0.0000000e+00 8.0000000e+00 0.0000000e+00 
7.6374203e-01 7.7163153e+00 0.0000000e+00 
1.9437179e-01 7.8156433e+00 0.0000000e+00 
3.7308612e-01 7.7272835e+00 0.0000000e+00 
1.0000000e+00 7.5999999e+00 0.0000000e+00 
5.4554766e-01 7.6299233e+00 0.0000000e+00 
0.0000000e+00 7.8000002e+00 0.0000000e+00 
7.4744660e-01 7.5226874e+00 0.0000000e+00 
2.0444529e-01 7.6206732e+00 0.0000000e+00 
3.8187346e-01 7.5294333e+00 0.0000000e+00 
0.0000000e+00 7.5999999e+00 0.0000000e+00 
1.0000000e+00 7.4000001e+00 0.0000000e+00 
5.2131432e-01 7.4393973e+00 0.0000000e+00 
1.9729473e-01 7.4537926e+00 0.0000000e+00 
7.0935732e-01 7.3327885e+00 0.0000000e+00 
3.5328710e-01 7.3320160e+00 0.0000000e+00 
8.4863865e-01 7.2198439e+00 0.0000000e+00 
0.0000000e+00 7.4000001e+00 0.0000000e+00 
5.3123343e-01 7.2420211e+00 0.0000000e+00 
1.0000000e+00 7.1999998e+00 0.0000000e+00 
1.7718045e-01 7.2569203e+00 0.0000000e+00 
6.6225648e-01 7.1541371e+00 0.0000000e+00 
3.4724638e-01 7.1689978e+00 0.0000000e+00 
8.3611876e-01 7.0656843e+00 0.0000000e+00 
0.0000000e+00 7.1999998e+00 0.0000000e+00 
4.9535713e-01 7.0473509e+00 0.0000000e+00 
1.0000000e+00 7.0000000e+00 0.0000000e+00 
1.7387313e-01 7.0734706e+00 0.0000000e+00 
6.6474640e-01 6.9560146e+00 0.0000000e+00 
3.4690949e-01 6.9773350e+00 0.0000000e+00 
8.4107113e-01 6.8641090e+00 0.0000000e+00 
0.0000000e+00 7.0000000e+00 0.0000000e+00 
5.2873749e-01 6.8578229e+00 0.0000000e+00 
1.0000000e+00 6.8000002e+00 0.0000000e+00 
1.7445621e-01 6.8769779e+00 0.0000000e+00 
6.7736709e-01 6.7575765e+00 0.0000000e+00 
3.4595537e-01 6.7778087e+00 0.0000000e+00 
8.3462298e-01 6.6689000e+00 0.0000000e+00 
0.0000000e+00 6.8000002e+00 0.0000000e+00 
5.0501287e-01 6.6597099e+00 0.0000000e+00 
1.0000000e+00 6.5999999e+00 0.0000000e+00 
1.8097465e-01 6.6789780e+00 0.0000000e+00 
6.6962856e-01 6.5595260e+00 0.0000000e+00 
3.2066780e-01 6.5871606e+00 0.0000000e+00 
8.3965176e-01 6.4710097e+00 0.0000000e+00 
0.0000000e+00 6.5999999e+00 0.0000000e+00 
4.8932999e-01 6.4914999e+00 0.0000000e+00 
1.0000000e+00 6.4000001e+00 0.0000000e+00 
1.4997987e-01 6.4839683e+00 0.0000000e+00 
6.6350561e-01 6.3954086e+00 0.0000000e+00 
3.2280096e-01 6.3877153e+00 0.0000000e+00 
8.3153027e-01 6.2889266e+00 0.0000000e+00 
0.0000000e+00 6.4000001e+00 0.0000000e+00 
4.9695736e-01 6.2927222e+00 0.0000000e+00 
1.0000000e+00 6.1999998e+00 0.0000000e+00 
1.6071729e-01 6.2864423e+00 0.0000000e+00 
6.5358984e-01 6.1999998e+00 0.0000000e+00 
3.3329538e-01 6.1896143e+00 0.0000000e+00 
8.1998920e-01 6.0895286e+00 0.0000000e+00 
0.0000000e+00 6.1999998e+00 0.0000000e+00 
4.8038477e-01 6.0999999e+00 0.0000000e+00 
1.7059118e-01 6.0888028e+00 0.0000000e+00 
1.0000000e+00 6.0000000e+00 0.0000000e+00 
6.5358984e-01 6.0000000e+00 0.0000000e+00 
3.0717969e-01 6.0000000e+00 0.0000000e+00 
8.2679492e-01 5.9000001e+00 0.0000000e+00 
0.0000000e+00 6.0000000e+00 0.0000000e+00 
4.8038477e-01 5.9000001e+00 0.0000000e+00 
1.3397460e-01 5.9000001e+00 0.0000000e+00 
1.0000000e+00 5.8000002e+00 0.0000000e+00 
6.5358984e-01 5.8000002e+00 0.0000000e+00 
3.0717969e-01 5.8000002e+00 0.0000000e+00 
8.2679492e-01 5.6999998e+00 0.0000000e+00 
0.0000000e+00 5.8000002e+00 0.0000000e+00 
4.8038477e-01 5.6999998e+00 0.0000000e+00 
1.3397460e-01 5.6999998e+00 0.0000000e+00 
1.0000000e+00 5.5999999e+00 0.0000000e+00 
6.5358984e-01 5.5999999e+00 0.0000000e+00 
3.2231969e-01 5.6385756e+00 0.0000000e+00 
8.2679492e-01 5.5000000e+00 0.0000000e+00 
0.0000000e+00 5.5999999e+00 0.0000000e+00 
4.8038477e-01 5.5000000e+00 0.0000000e+00 
1.7059118e-01 5.5111971e+00 0.0000000e+00 
1.0000000e+00 5.4000001e+00 0.0000000e+00 
6.5358984e-01 5.4000001e+00 0.0000000e+00 
3.3329538e-01 5.3896141e+00 0.0000000e+00 
8.2679492e-01 5.3000002e+00 0.0000000e+00 
0.0000000e+00 5.4000001e+00 0.0000000e+00 
4.8038477e-01 5.3000002e+00 0.0000000e+00 
1.7059118e-01 5.2888031e+00 0.0000000e+00 
1.0000000e+00 5.1999998e+00 0.0000000e+00 
6.5358984e-01 5.1999998e+00 0.0000000e+00 
3.0717969e-01 5.1999998e+00 0.0000000e+00 
8.2679492e-01 5.0999999e+00 0.0000000e+00 
0.0000000e+00 5.1999998e+00 0.0000000e+00 
4.8038477e-01 5.0999999e+00 0.0000000e+00 
1.3397460e-01 5.0999999e+00 0.0000000e+00 
1.0000000e+00 5.0000000e+00 0.0000000e+00 
6.5358984e-01 5.0000000e+00 0.0000000e+00 
3.0717969e-01 5.0000000e+00 0.0000000e+00 
0.0000000e+00 5.0000000e+00 0.0000000e+00 
8.2679492e-01 4.9000001e+00 0.0000000e+00 
4.8038477e-01 4.9000001e+00 0.0000000e+00 
1.3397460e-01 4.9000001e+00 0.0000000e+00 
1.0000000e+00 4.8000002e+00 0.0000000e+00 
6.5358984e-01 4.8000002e+00 0.0000000e+00 
3.0717969e-01 4.8000002e+00 0.0000000e+00 
0.0000000e+00 4.8000002e+00 0.0000000e+00 
8.2679492e-01 4.6999998e+00 0.0000000e+00 
4.8038477e-01 4.6999998e+00 0.0000000e+00 
1.3397460e-01 4.6999998e+00 0.0000000e+00 
1.0000000e+00 4.5999999e+00 0.0000000e+00 
6.5358984e-01 4.5999999e+00 0.0000000e+00 
3.0717969e-01 4.5999999e+00 0.0000000e+00 
0.0000000e+00 4.5999999e+00 0.0000000e+00 
8.2679492e-01 4.5000000e+00 0.0000000e+00 
4.8038477e-01 4.5000000e+00 0.0000000e+00 
1.3397460e-01 4.5000000e+00 0.0000000e+00 
1.0000000e+00 4.4000001e+00 0.0000000e+00 
6.5358984e-01 4.4000001e+00 0.0000000e+00 
3.0717969e-01 4.4000001e+00 0.0000000e+00 
8.3046603e-01 4.3165317e+00 0.0000000e+00 
0.0000000e+00 4.4000001e+00 0.0000000e+00 
4.8038477e-01 4.3000002e+00 0.0000000e+00 
1.7059118e-01 4.3111973e+00 0.0000000e+00 
6.6123927e-01 4.2184782e+00 0.0000000e+00 
1.0000000e+00 4.1999998e+00 0.0000000e+00 
3.3329538e-01 4.2103858e+00 0.0000000e+00 
8.3268768e-01 4.1176395e+00 0.0000000e+00 
0.0000000e+00 4.1999998e+00 0.0000000e+00 
4.9695736e-01 4.1072779e+00 0.0000000e+00 
1.6071729e-01 4.1135573e+00 0.0000000e+00 
1.0000000e+00 4.0000000e+00 0.0000000e+00 
3.2280096e-01 4.0122848e+00 0.0000000e+00 
6.4947557e-01 3.9632084e+00 0.0000000e+00 
8.4590596e-01 3.9203768e+00 0.0000000e+00 
0.0000000e+00 4.0000000e+00 0.0000000e+00 
4.7627035e-01 3.9377375e+00 0.0000000e+00 
1.4997987e-01 3.9160316e+00 0.0000000e+00 
1.0000000e+00 3.8000000e+00 0.0000000e+00 
3.2066780e-01 3.8128395e+00 0.0000000e+00 
5.1165128e-01 3.7661045e+00 0.0000000e+00 
0.0000000e+00 3.8000000e+00 0.0000000e+00 
7.4880123e-01 3.7184730e+00 0.0000000e+00 
1.8097465e-01 3.7210221e+00 0.0000000e+00 
1.0000000e+00 3.5999999e+00 0.0000000e+00 
3.4595537e-01 3.6221914e+00 0.0000000e+00 
5.2873749e-01 3.5421770e+00 0.0000000e+00 
0.0000000e+00 3.5999999e+00 0.0000000e+00 
1.7445621e-01 3.5230222e+00 0.0000000e+00 
7.1247655e-01 3.4632580e+00 0.0000000e+00 
1.0000000e+00 3.4000001e+00 0.0000000e+00 
3.4690949e-01 3.4226651e+00 0.0000000e+00 
0.0000000e+00 3.4000001e+00 0.0000000e+00 
5.1989859e-01 3.3223066e+00 0.0000000e+00 
8.2679492e-01 3.3000000e+00 0.0000000e+00 
1.7356591e-01 3.3231418e+00 0.0000000e+00 
1.0000000e+00 3.2000000e+00 0.0000000e+00 
3.4647828e-01 3.2226951e+00 0.0000000e+00 
6.5358984e-01 3.2000000e+00 0.0000000e+00 
5.0604391e-01 3.1465836e+00 0.0000000e+00 
[...]
POINT_DATA 340
FIELD FieldData 3
DISPLACEMENT 3 340  float
-2.8603039e+00 2.0423687e-01 0.0000000e+00 
-2.7814529e+00 2.0418094e-01 0.0000000e+00 
-2.8602850e+00 1.2539899e-01 0.0000000e+00 
-2.7851007e+00 9.7618110e-02 0.0000000e+00 
-2.7176294e+00 1.4176254e-01 0.0000000e+00 
-2.8602805e+00 4.6582904e-02 0.0000000e+00 
-2.7025518e+00 2.0411441e-01 0.0000000e+00 
-2.7920136e+00 7.1598054e-03 0.0000000e+00 
-2.6988952e+00 6.0686886e-02 0.0000000e+00 
-2.6371129e+00 1.4197582e-01 0.0000000e+00 
-2.8603225e+00 -3.2218631e-02 0.0000000e+00 
-2.6236262e+00 2.0398870e-01 0.0000000e+00 
-2.7159798e+00 -3.0131850e-02 0.0000000e+00 
-2.7870581e+00 -7.9978354e-02 0.0000000e+00 
-2.5960610e+00 7.4649796e-02 0.0000000e+00 
-2.6337154e+00 5.5476860e-03 0.0000000e+00 
-2.5581930e+00 1.4358567e-01 0.0000000e+00 
-2.8604062e+00 -1.1104216e-01 0.0000000e+00 
-2.5447054e+00 2.0377779e-01 0.0000000e+00 
-2.6553752e+00 -7.1597658e-02 0.0000000e+00 
-2.7119451e+00 -1.2381615e-01 0.0000000e+00 
-2.5172398e+00 7.6266356e-02 0.0000000e+00 
-2.5523164e+00 1.1038475e-03 0.0000000e+00 
-2.4793658e+00 1.4548109e-01 0.0000000e+00 
-2.8605015e+00 -1.8988635e-01 0.0000000e+00 
-2.4658306e+00 2.0345490e-01 0.0000000e+00 
-2.7816458e+00 -1.8988816e-01 0.0000000e+00 
-2.5772822e+00 -9.9871606e-02 0.0000000e+00 
-2.7027524e+00 -1.8987516e-01 0.0000000e+00 
-2.4758933e+00 9.3346126e-03 0.0000000e+00 
-2.5138409e+00 -5.9412260e-02 0.0000000e+00 
-2.4383779e+00 7.8234024e-02 0.0000000e+00 
-2.6238120e+00 -1.8981376e-01 0.0000000e+00 
-2.4005752e+00 1.4684473e-01 0.0000000e+00 
-2.3871150e+00 2.0297122e-01 0.0000000e+00 
-2.5052278e+00 -1.2133934e-01 0.0000000e+00 
-2.4350765e+00 -5.7123102e-02 0.0000000e+00 
-2.3971107e+00 1.1579715e-02 0.0000000e+00 
-2.5448663e+00 -1.8968996e-01 0.0000000e+00 
-2.3598006e+00 7.9643950e-02 0.0000000e+00 
-2.4262912e+00 -1.2115736e-01 0.0000000e+00 
-2.3084707e+00 2.0238474e-01 0.0000000e+00 
-2.4658709e+00 -1.8945722e-01 0.0000000e+00 
-2.3563178e+00 -5.5303015e-02 0.0000000e+00 
-2.3184798e+00 1.3032956e-02 0.0000000e+00 
-2.2765827e+00 9.9086426e-02 0.0000000e+00 
-2.3870068e+00 -1.8909088e-01 0.0000000e+00 
-2.2301192e+00 2.0170408e-01 0.0000000e+00 
-2.3151615e+00 -1.2179826e-01 0.0000000e+00 
-2.2779589e+00 -5.2868500e-02 0.0000000e+00 
-2.2401094e+00 1.5386781e-02 0.0000000e+00 
-2.1975513e+00 1.0297036e-01 0.0000000e+00 
-2.3083639e+00 -1.8861087e-01 0.0000000e+00 
-2.2367690e+00 -1.1984444e-01 0.0000000e+00 
-2.1996672e+00 -5.1107742e-02 0.0000000e+00 
-2.1520343e+00 2.0087816e-01 0.0000000e+00 
-2.1620147e+00 1.6569288e-02 0.0000000e+00 
-2.2299850e+00 -1.8799841e-01 0.0000000e+00 
-2.1185470e+00 1.0732275e-01 0.0000000e+00 
-2.1586738e+00 -1.1692454e-01 0.0000000e+00 
-2.1220198e+00 -4.8363537e-02 0.0000000e+00 
-2.0742910e+00 1.9990139e-01 0.0000000e+00 
-2.0843291e+00 1.9201638e-02 0.0000000e+00 
-2.1519010e+00 -1.8726104e-01 0.0000000e+00 
-2.0418584e+00 1.0518287e-01 0.0000000e+00 
-2.0797842e+00 -1.1546996e-01 0.0000000e+00 
-2.0444355e+00 -4.6603899e-02 0.0000000e+00 
-1.9969392e+00 1.9880314e-01 0.0000000e+00 
-2.0071023e+00 1.9658955e-02 0.0000000e+00 
-2.0741620e+00 -1.8639533e-01 0.0000000e+00 
-1.9642464e+00 1.0764562e-01 0.0000000e+00 
-2.0025313e+00 -1.1066537e-01 0.0000000e+00 
-1.9682899e+00 -4.1911475e-02 0.0000000e+00 
-1.9200444e+00 1.9755237e-01 0.0000000e+00 
-1.9308331e+00 2.4011603e-02 0.0000000e+00 
-1.9968221e+00 -1.8541190e-01 0.0000000e+00 
-1.8899162e+00 1.0074204e-01 0.0000000e+00 
-1.9274580e+00 -1.0615751e-01 0.0000000e+00 
-1.8923094e+00 -3.8323358e-02 0.0000000e+00 
-1.9199324e+00 -1.8430850e-01 0.0000000e+00 
-1.8436000e+00 1.9621551e-01 0.0000000e+00 
-1.8578871e+00 1.4616014e-02 0.0000000e+00 
-1.8635954e+00 -1.0827770e-01 0.0000000e+00 
-1.8174582e+00 8.5595690e-02 0.0000000e+00 
-1.8170404e+00 -4.8848260e-02 0.0000000e+00 
-1.7748824e+00 1.3773566e-01 0.0000000e+00 
-1.8435272e+00 -1.8304740e-01 0.0000000e+00 
-1.7828691e+00 1.8231485e-02 0.0000000e+00 
-1.7678010e+00 1.9468924e-01 0.0000000e+00 
-1.7887731e+00 -1.1507055e-01 0.0000000e+00 
-1.7497281e+00 6.7317389e-02 0.0000000e+00 
-1.7552987e+00 -5.0818060e-02 0.0000000e+00 
-1.7167119e+00 1.3212623e-01 0.0000000e+00 
-1.7676791e+00 -1.8162371e-01 0.0000000e+00 
-1.7094136e+00 4.7121639e-03 0.0000000e+00 
-1.6925632e+00 1.9299473e-01 0.0000000e+00 
-1.7195569e+00 -1.1544343e-01 0.0000000e+00 
-1.6752797e+00 6.7674838e-02 0.0000000e+00 
-1.6832207e+00 -5.0492391e-02 0.0000000e+00 
-1.6413285e+00 1.3272889e-01 0.0000000e+00 
-1.6924503e+00 -1.8006672e-01 0.0000000e+00 
-1.6385233e+00 1.7039252e-02 0.0000000e+00 
-1.6180148e+00 1.9115341e-01 0.0000000e+00 
-1.6460063e+00 -1.1420454e-01 0.0000000e+00 
-1.6014183e+00 7.1652375e-02 0.0000000e+00 
-1.6088555e+00 -5.0372079e-02 0.0000000e+00 
-1.5689721e+00 1.2904137e-01 0.0000000e+00 
-1.6178935e+00 -1.7837691e-01 0.0000000e+00 
-1.5651124e+00 8.1881247e-03 0.0000000e+00 
-1.5441900e+00 1.8918341e-01 0.0000000e+00 
-1.5725775e+00 -1.1068205e-01 0.0000000e+00 
-1.5284072e+00 6.8108723e-02 0.0000000e+00 
-1.5385197e+00 -5.9121527e-02 0.0000000e+00 
-1.4964099e+00 1.2948588e-01 0.0000000e+00 
-1.5440832e+00 -1.7658170e-01 0.0000000e+00 
-1.5033643e+00 2.4251747e-03 0.0000000e+00 
-1.4711573e+00 1.8705864e-01 0.0000000e+00 
-1.5010730e+00 -1.2078042e-01 0.0000000e+00 
-1.4684864e+00 6.5280750e-02 0.0000000e+00 
-1.4656675e+00 -5.7676777e-02 0.0000000e+00 
-1.4303216e+00 1.2519847e-01 0.0000000e+00 
-1.4710189e+00 -1.7456847e-01 0.0000000e+00 
-1.4311464e+00 5.1387995e-03 0.0000000e+00 
-1.3989747e+00 1.8480887e-01 0.0000000e+00 
-1.4293504e+00 -1.1553895e-01 0.0000000e+00 
-1.3978945e+00 6.0957085e-02 0.0000000e+00 
-1.3941299e+00 -5.3234115e-02 0.0000000e+00 
-1.3587646e+00 1.1954087e-01 0.0000000e+00 
-1.3988346e+00 -1.7247148e-01 0.0000000e+00 
-1.3619660e+00 -8.0625922e-04 0.0000000e+00 
-1.3584352e+00 -1.1058755e-01 0.0000000e+00 
-1.3276883e+00 1.8245333e-01 0.0000000e+00 
-1.3265357e+00 6.0185008e-02 0.0000000e+00 
-1.3265443e+00 -6.1787616e-02 0.0000000e+00 
-1.2916512e+00 1.2040453e-01 0.0000000e+00 
-1.3275455e+00 -1.7028703e-01 0.0000000e+00 
-1.2910651e+00 -7.8291167e-04 0.0000000e+00 
-1.2916573e+00 -1.2199951e-01 0.0000000e+00 
-1.2573417e+00 1.7992724e-01 0.0000000e+00 
-1.2561293e+00 5.9356283e-02 0.0000000e+00 
-1.2561350e+00 -6.0929999e-02 0.0000000e+00 
-1.2217710e+00 1.1868782e-01 0.0000000e+00 
-1.2571661e+00 -1.6785367e-01 0.0000000e+00 
-1.2211497e+00 -7.5253524e-04 0.0000000e+00 
-1.2217889e+00 -1.2026956e-01 0.0000000e+00 
-1.1880126e+00 1.7727073e-01 0.0000000e+00 
-1.1867388e+00 5.8481008e-02 0.0000000e+00 
-1.2000190e+00 -5.4983612e-02 0.0000000e+00 
-1.1529257e+00 1.1687858e-01 0.0000000e+00 
-1.1878607e+00 -1.6528754e-01 0.0000000e+00 
-1.1522807e+00 -7.3335785e-04 0.0000000e+00 
-1.1566644e+00 -1.0605826e-01 0.0000000e+00 
-1.1197338e+00 1.7448631e-01 0.0000000e+00 
-1.1184069e+00 5.7558794e-02 0.0000000e+00 
-1.1148338e+00 -5.0187625e-02 0.0000000e+00 
-1.0851488e+00 1.1498075e-01 0.0000000e+00 
-1.1196065e+00 -1.6271546e-01 0.0000000e+00 
-1.0844742e+00 -7.5421628e-04 0.0000000e+00 
-1.0813017e+00 -1.0406837e-01 0.0000000e+00 
-1.0525482e+00 1.7156796e-01 0.0000000e+00 
-1.0511513e+00 5.6591384e-02 0.0000000e+00 
-1.0511979e+00 -5.8027778e-02 0.0000000e+00 
-1.0184847e+00 1.1298662e-01 0.0000000e+00 
-1.0524487e+00 -1.5999107e-01 0.0000000e+00 
-1.0178018e+00 -7.0997910e-04 0.0000000e+00 
-1.0186038e+00 -1.1434840e-01 0.0000000e+00 
-9.8650187e-01 1.6850711e-01 0.0000000e+00 
-9.8504937e-01 5.5587996e-02 0.0000000e+00 
-9.8514491e-01 -5.6947920e-02 0.0000000e+00 
-9.8651850e-01 -1.5701172e-01 0.0000000e+00 
-9.5298612e-01 1.1089661e-01 0.0000000e+00 
-9.5229489e-01 -6.5524137e-04 0.0000000e+00 
-9.5323187e-01 -1.1219322e-01 0.0000000e+00 
-9.2164546e-01 1.6529509e-01 0.0000000e+00 
-9.2012715e-01 5.4542039e-02 0.0000000e+00 
-9.2027336e-01 -5.5785041e-02 0.0000000e+00 
-9.2182106e-01 -1.5394573e-01 0.0000000e+00 
-8.8869196e-01 1.0869719e-01 0.0000000e+00 
-8.8798410e-01 -5.8409543e-04 0.0000000e+00 
-8.8902187e-01 -1.0988417e-01 0.0000000e+00 
-8.5802579e-01 1.6190799e-01 0.0000000e+00 
-8.5642582e-01 5.3444706e-02 0.0000000e+00 
-8.5660845e-01 -5.4541629e-02 0.0000000e+00 
-8.5823929e-01 -1.5070735e-01 0.0000000e+00 
-8.2565260e-01 1.0636814e-01 0.0000000e+00 
-8.2491392e-01 -4.9889943e-04 0.0000000e+00 
-8.2601833e-01 -1.0746058e-01 0.0000000e+00 
-7.9571146e-01 1.5830977e-01 0.0000000e+00 
-7.9401028e-01 5.2284971e-02 0.0000000e+00 
-7.9420304e-01 -5.3215306e-02 0.0000000e+00 
-7.6901108e-01 1.0521848e-01 0.0000000e+00 
-7.9596746e-01 -1.4719999e-01 0.0000000e+00 
-7.6316810e-01 -4.0615961e-04 0.0000000e+00 
-7.6755744e-01 -9.3875624e-02 0.0000000e+00 
-7.3855978e-01 5.3466361e-02 0.0000000e+00 
-7.3478281e-01 1.5443841e-01 0.0000000e+00 
-7.3620927e-01 -4.4121455e-02 0.0000000e+00 
-7.0895422e-01 1.0321485e-01 0.0000000e+00 
-7.3503917e-01 -1.4361812e-01 0.0000000e+00 
-7.0498514e-01 4.4915089e-03 0.0000000e+00 
-7.0794410e-01 -9.4295084e-02 0.0000000e+00 
-6.7540526e-01 1.5022878e-01 0.0000000e+00 
-6.7720944e-01 -4.5880593e-02 0.0000000e+00 
-6.6251236e-01 4.8256680e-02 0.0000000e+00 
-6.5107733e-01 1.0423395e-01 0.0000000e+00 
-6.7547989e-01 -1.3971259e-01 0.0000000e+00 
-6.5514946e-01 -1.4287945e-03 0.0000000e+00 
-6.4982939e-01 -9.4719969e-02 0.0000000e+00 
-6.1773574e-01 1.4550571e-01 0.0000000e+00 
-6.1931932e-01 -4.5027934e-02 0.0000000e+00 
-6.0574579e-01 8.5443268e-03 0.0000000e+00 
-6.1754918e-01 -1.3541935e-01 0.0000000e+00 
-5.9275693e-01 7.4077621e-02 0.0000000e+00 
-5.9380108e-01 -8.3176233e-02 0.0000000e+00 
-5.6160802e-01 1.4098166e-01 0.0000000e+00 
-5.6541938e-01 -3.6800813e-02 0.0000000e+00 
-5.4317194e-01 1.2683391e-02 0.0000000e+00 
-5.6143820e-01 -1.3100524e-01 0.0000000e+00 
-5.3893316e-01 -8.2054228e-02 0.0000000e+00 
-5.2229631e-01 6.1075702e-02 0.0000000e+00 
-5.0782353e-01 1.3639057e-01 0.0000000e+00 
-5.1105869e-01 -3.5230771e-02 0.0000000e+00 
-5.0726616e-01 -1.2621585e-01 0.0000000e+00 
-4.8432130e-01 9.9368878e-03 0.0000000e+00 
-4.7977996e-01 8.8550828e-02 0.0000000e+00 
-4.8550546e-01 -7.9158582e-02 0.0000000e+00 
-4.5553046e-01 1.3080370e-01 0.0000000e+00 
-4.5859200e-01 -3.3969495e-02 0.0000000e+00 
-4.5283726e-01 4.3244358e-02 0.0000000e+00 
-4.3895206e-01 6.3391523e-03 0.0000000e+00 
-4.5517448e-01 -1.2113310e-01 0.0000000e+00 
-4.2856276e-01 8.4824279e-02 0.0000000e+00 
-4.3413496e-01 -7.5920068e-02 0.0000000e+00 
-4.0552506e-01 1.2498053e-01 0.0000000e+00 
-4.0284568e-01 4.1339375e-02 0.0000000e+00 
-4.0186086e-01 -1.9373618e-02 0.0000000e+00 
-4.0515977e-01 -1.1577311e-01 0.0000000e+00 
-3.7959966e-01 8.0855295e-02 0.0000000e+00 
-3.7891343e-01 -7.0809469e-02 0.0000000e+00 
-3.5776260e-01 1.1889650e-01 0.0000000e+00 
-3.5589188e-01 2.5836062e-02 0.0000000e+00 
-3.5232380e-01 -3.1000732e-02 0.0000000e+00 
-3.5759044e-01 -1.1014066e-01 0.0000000e+00 
-3.3304805e-01 7.6926395e-02 0.0000000e+00 
-3.3290231e-01 -6.8324089e-02 0.0000000e+00 
-3.2233506e-01 -9.5035898e-04 0.0000000e+00 
-3.1261799e-01 1.1250298e-01 0.0000000e+00 
-3.0952960e-01 3.7158016e-02 0.0000000e+00 
-3.0959514e-01 -3.7181363e-02 0.0000000e+00 
-3.1235453e-01 -1.0414410e-01 0.0000000e+00 
-2.8896123e-01 7.2473250e-02 0.0000000e+00 
-2.8740862e-01 4.7219644e-05 0.0000000e+00 
-2.8872663e-01 -6.4242646e-02 0.0000000e+00 
-2.6990962e-01 1.0572428e-01 0.0000000e+00 
-2.6670173e-01 3.4982178e-02 0.0000000e+00 
-2.6671374e-01 -3.4930889e-02 0.0000000e+00 
-2.6958477e-01 -9.7806372e-02 0.0000000e+00 
-2.4750602e-01 6.7848369e-02 0.0000000e+00 
-2.4588324e-01 4.9154987e-05 0.0000000e+00 
-2.4721716e-01 -5.9969157e-02 0.0000000e+00 
-2.2990593e-01 9.8606177e-02 0.0000000e+00 
-2.2653900e-01 3.2655139e-02 0.0000000e+00 
-2.2656806e-01 -3.2606121e-02 0.0000000e+00 
-2.2953334e-01 -9.1257356e-02 0.0000000e+00 
-2.0879872e-01 6.3009046e-02 0.0000000e+00 
-2.0706896e-01 6.9954542e-05 0.0000000e+00 
-2.0882580e-01 -6.2798560e-02 0.0000000e+00 
-1.9271944e-01 9.1138974e-02 0.0000000e+00 
-1.8919519e-01 3.0188937e-02 0.0000000e+00 
-1.8920407e-01 -3.0044461e-02 0.0000000e+00 
-1.9223498e-01 -8.4145986e-02 0.0000000e+00 
-1.7298250e-01 5.7960290e-02 0.0000000e+00 
-1.7116427e-01 8.9818473e-05 0.0000000e+00 
-1.7301638e-01 -5.7749297e-02 0.0000000e+00 
-1.5852569e-01 8.3299972e-02 0.0000000e+00 
-1.5480919e-01 2.7587967e-02 0.0000000e+00 
-1.5481512e-01 -2.7406013e-02 0.0000000e+00 
-1.5800321e-01 -7.6862186e-02 0.0000000e+00 
-1.4261462e-01 5.1171351e-02 0.0000000e+00 
-1.3829626e-01 1.0440953e-04 0.0000000e+00 
-1.4021391e-01 -5.2440364e-02 0.0000000e+00 
-1.2736851e-01 7.5305112e-02 0.0000000e+00 
-1.2351248e-01 2.4926934e-02 0.0000000e+00 
-1.2351596e-01 -2.4669835e-02 0.0000000e+00 
-1.2681723e-01 -6.9269605e-02 0.0000000e+00 
-1.1313941e-01 4.7956832e-02 0.0000000e+00 
-1.0855086e-01 1.0190154e-04 0.0000000e+00 
-1.1055822e-01 -4.6957199e-02 0.0000000e+00 
-9.8911159e-02 2.3176124e-02 0.0000000e+00 
-9.9410579e-02 6.6805623e-02 0.0000000e+00 
-9.5429085e-02 -2.1795947e-02 0.0000000e+00 
-9.8931968e-02 -6.1240647e-02 0.0000000e+00 
-8.6609147e-02 4.1895509e-02 0.0000000e+00 
-8.5714296e-02 1.4943102e-03 0.0000000e+00 
-8.5179716e-02 -3.7016802e-02 0.0000000e+00 
-7.3932171e-02 2.0620242e-02 0.0000000e+00 
-7.4814677e-02 5.8090266e-02 0.0000000e+00 
-7.1722426e-02 -1.6166260e-02 0.0000000e+00 
-6.6966385e-02 3.8944017e-02 0.0000000e+00 
-7.4249081e-02 -5.3264175e-02 0.0000000e+00 
-6.2345710e-02 3.8504675e-03 0.0000000e+00 
-6.2293760e-02 -3.2788675e-02 0.0000000e+00 
-5.2964404e-02 1.9629331e-02 0.0000000e+00 
-5.3584084e-02 4.9024034e-02 0.0000000e+00 
-5.0244175e-02 -1.3754168e-02 0.0000000e+00 
-5.3067740e-02 -4.4730153e-02 0.0000000e+00 
-4.5527291e-02 3.3338666e-02 0.0000000e+00 
-4.2375430e-02 3.1687540e-03 0.0000000e+00 
-4.2490162e-02 -2.5436159e-02 0.0000000e+00 
-3.4658384e-02 1.6308948e-02 0.0000000e+00 
-3.5939649e-02 3.9463341e-02 0.0000000e+00 
-3.2646384e-02 -9.9159889e-03 0.0000000e+00 
-3.5423305e-02 -3.6124498e-02 0.0000000e+00 
-2.9036677e-02 2.6691312e-02 0.0000000e+00 
-2.5817338e-02 2.6819997e-03 0.0000000e+00 
-2.6439285e-02 -2.0185992e-02 0.0000000e+00 
-1.9974653e-02 1.2584057e-02 0.0000000e+00 
-2.2114631e-02 2.9655276e-02 0.0000000e+00 
-1.8285379e-02 -7.3391125e-03 0.0000000e+00 
-2.1447225e-02 -2.7121795e-02 0.0000000e+00 
-1.5191852e-02 1.8878518e-02 0.0000000e+00 
-1.2216474e-02 2.1730526e-03 0.0000000e+00 
-1.3966941e-02 -1.4477393e-02 0.0000000e+00 
-8.3091035e-03 8.1389099e-03 0.0000000e+00 
-1.2094034e-02 1.9330280e-02 0.0000000e+00 
-7.7429130e-03 -4.8242295e-03 0.0000000e+00 
-7.5692129e-03 1.1847155e-02 0.0000000e+00 
-1.1308364e-02 -1.7761322e-02 0.0000000e+00 
-3.7827666e-03 1.4525331e-03 0.0000000e+00 
-4.3990198e-03 -7.5304741e-03 0.0000000e+00 
-2.6977723e-03 4.9852147e-03 0.0000000e+00 
-5.0193653e-03 8.9282217e-03 0.0000000e+00 
-8.5858692e-04 -1.3011682e-03 0.0000000e+00 
-4.6051899e-03 -8.2099540e-03 0.0000000e+00 
0.0000000e+00 0.0000000e+00 0.0000000e+00 
0.0000000e+00 0.0000000e+00 0.0000000e+00 
0.0000000e+00 0.0000000e+00 0.0000000e+00 
0.0000000e+00 0.0000000e+00 0.0000000e+00 
0.0000000e+00 0.0000000e+00 0.0000000e+00 
0.0000000e+00 0.0000000e+00 0.0000000e+00 
REACTION 3 340  float
-2.7094025e-11 -1.2138512e-11 0.0000000e+00 
-2.6158076e-11 1.0671575e-11 0.0000000e+00 
2.8552938e-11 3.2596148e-13 0.0000000e+00 
3.5649150e-11 2.6336711e-12 0.0000000e+00 
-2.8355096e-13 2.2275515e-11 0.0000000e+00 
3.5202952e-12 -4.6934678e-13 0.0000000e+00 
2.8303027e-11 3.0464520e-13 0.0000000e+00 
-8.1359364e-12 -1.0469625e-11 0.0000000e+00 
-5.4320992e-11 8.2271967e-12 0.0000000e+00 
-3.0080133e-11 -1.7100543e-11 0.0000000e+00 
-2.4218849e-11 -1.7405799e-12 0.0000000e+00 
5.1573190e-11 -2.8128611e-12 0.0000000e+00 
-2.7066127e-12 -2.0907720e-12 0.0000000e+00 
-2.0294433e-11 1.6747229e-11 0.0000000e+00 
4.5830006e-12 -1.2581491e-11 0.0000000e+00 
-1.0492940e-11 6.6169292e-12 0.0000000e+00 
-2.3635760e-11 -1.9999113e-11 0.0000000e+00 
2.8331670e-11 -1.1359358e-11 0.0000000e+00 
2.0734525e-12 1.3516299e-11 0.0000000e+00 
3.7492232e-11 1.2527535e-11 0.0000000e+00 
-2.2822189e-11 2.0936364e-11 0.0000000e+00 
1.8370638e-11 7.7262641e-12 0.0000000e+00 
1.5957902e-11 -1.7577051e-12 0.0000000e+00 
-5.2868657e-11 -1.8296920e-11 0.0000000e+00 
5.6958882e-12 -2.2235547e-12 0.0000000e+00 
6.6475714e-12 -3.1411318e-11 0.0000000e+00 
2.6764368e-11 -2.3945734e-11 0.0000000e+00 
-3.3378189e-11 -2.7516656e-11 0.0000000e+00 
1.5531132e-11 4.3144377e-12 0.0000000e+00 
-2.9115377e-11 -6.5529804e-12 0.0000000e+00 
-2.0591528e-11 -2.1511681e-11 0.0000000e+00 
1.6098234e-11 8.0868645e-13 0.0000000e+00 
-2.3302249e-11 -6.2836403e-12 0.0000000e+00 
4.0037751e-11 -5.0559557e-11 0.0000000e+00 
-1.0169708e-10 -5.5191407e-12 0.0000000e+00 
2.2820856e-11 3.4597214e-11 0.0000000e+00 
4.8641868e-11 3.6133763e-11 0.0000000e+00 
3.9598547e-11 2.2092550e-11 0.0000000e+00 
3.1163516e-11 1.6962209e-11 0.0000000e+00 
7.9045215e-11 7.9865003e-12 0.0000000e+00 
-2.0741631e-11 -1.1455725e-11 0.0000000e+00 
-6.4673933e-11 -1.0240697e-11 0.0000000e+00 
-2.0720758e-11 1.6152413e-11 0.0000000e+00 
-2.1786128e-11 8.8435925e-12 0.0000000e+00 
6.0749628e-11 -3.9264147e-12 0.0000000e+00 
5.7512217e-11 3.5328185e-11 0.0000000e+00 
-1.0613288e-11 3.1604941e-11 0.0000000e+00 
-8.5907281e-11 -5.5835336e-11 0.0000000e+00 
1.6518453e-11 1.2112089e-11 0.0000000e+00 
8.0477847e-12 1.4503954e-12 0.0000000e+00 
7.8239637e-11 1.7833734e-11 0.0000000e+00 
1.5225510e-10 4.2941650e-11 0.0000000e+00 
-6.3848038e-11 5.1148419e-11 0.0000000e+00 
4.4478421e-11 -1.0367263e-11 0.0000000e+00 
1.3820056e-12 -2.5749181e-11 0.0000000e+00 
-1.7958790e-10 -4.7348347e-11 0.0000000e+00 
-4.7927884e-11 1.0153937e-11 0.0000000e+00 
-1.1245938e-10 7.1104012e-11 0.0000000e+00 
2.8690472e-10 6.1085359e-11 0.0000000e+00 
1.4018164e-10 -5.7962524e-12 0.0000000e+00 
2.4227731e-11 -6.4215300e-12 0.0000000e+00 
-1.5380675e-10 3.1807890e-11 0.0000000e+00 
-4.1061377e-11 1.5582202e-11 0.0000000e+00 
-1.9146196e-10 8.4103391e-11 0.0000000e+00 
3.0193092e-10 3.7307046e-11 0.0000000e+00 
2.1335689e-10 -2.4162006e-11 0.0000000e+00 
-3.5831782e-11 -4.1880277e-11 0.0000000e+00 
-8.6249230e-11 2.4982683e-10 0.0000000e+00 
-1.5030643e-10 7.2677420e-12 0.0000000e+00 
-2.7358915e-10 9.0466301e-11 0.0000000e+00 
2.6171332e-10 -1.1969448e-10 0.0000000e+00 
3.5652148e-10 -7.1853634e-11 0.0000000e+00 
-1.6237678e-11 -5.3387517e-11 0.0000000e+00 
2.6359759e-10 7.8262286e-10 0.0000000e+00 
-2.8642955e-10 1.0656542e-10 0.0000000e+00 
-3.6480863e-10 2.2765079e-10 0.0000000e+00 
-1.9967850e-10 1.6738610e-10 0.0000000e+00 
5.8957550e-10 -1.0993872e-10 0.0000000e+00 
-1.7957924e-10 -2.3067770e-10 0.0000000e+00 
-6.1967675e-10 -4.1204373e-11 0.0000000e+00 
6.3055072e-10 -1.1713013e-09 0.0000000e+00 
-4.5417803e-10 1.3777424e-10 0.0000000e+00 
8.6952179e-10 -7.2851059e-11 0.0000000e+00 
-5.4202776e-10 1.3869865e-09 0.0000000e+00 
-3.2433078e-10 -4.9558579e-11 0.0000000e+00 
2.5557794e-09 -1.0578232e-09 0.0000000e+00 
-6.3988548e-10 3.1332803e-10 0.0000000e+00 
-7.1327233e-10 5.0286886e-11 0.0000000e+00 
-1.5403891e-09 5.4838267e-10 0.0000000e+00 
1.5301955e-09 -1.6237323e-10 0.0000000e+00 
-4.4352477e-10 3.3090330e-10 0.0000000e+00 
-4.6454374e-10 -4.0124881e-10 0.0000000e+00 
1.8685700e-09 9.6370911e-11 0.0000000e+00 
-1.1701857e-09 5.4129146e-11 0.0000000e+00 
-1.4136923e-09 1.5417889e-10 0.0000000e+00 
-1.0495897e-09 -8.6509999e-10 0.0000000e+00 
2.2343336e-09 -7.2118223e-10 0.0000000e+00 
-2.9865965e-10 2.5149127e-10 0.0000000e+00 
-1.0109362e-09 -4.9110582e-10 0.0000000e+00 
3.6579242e-09 -1.1513634e-10 0.0000000e+00 
-9.0612939e-10 -2.4122215e-10 0.0000000e+00 
-1.8827451e-09 8.9163343e-11 0.0000000e+00 
-2.2854056e-09 -3.4270187e-10 0.0000000e+00 
2.7315561e-09 2.4007818e-10 0.0000000e+00 
-2.7429614e-10 1.0094539e-09 0.0000000e+00 
-1.4601387e-09 -7.5410966e-10 0.0000000e+00 
4.5704751e-09 1.1011210e-09 0.0000000e+00 
-8.5817309e-10 -6.1454131e-10 0.0000000e+00 
-3.0014764e-09 1.6962243e-10 0.0000000e+00 