# vtk DataFile Version 4.0
vtk output
ASCII
DATASET UNSTRUCTURED_GRID
POINTS 340 float
1.0000000e+00 1.0000000e+01 0.0000000e+00 
1.0000000e+00 9.8000002e+00 0.0000000e+00 
8.0000001e-01 1.0000000e+01 0.0000000e+00 
7.2964472e-01 9.8093147e+00 0.0000000e+00 
8.4182751e-01 9.6382694e+00 0.0000000e+00 
6.0000002e-01 1.0000000e+01 0.0000000e+00 
1.0000000e+00 9.6000004e+00 0.0000000e+00 
5.0000000e-01 9.8267946e+00 0.0000000e+00 
6.3604087e-01 9.5908260e+00 0.0000000e+00 
8.4263843e-01 9.4342804e+00 0.0000000e+00 
4.0000001e-01 1.0000000e+01 0.0000000e+00 
1.0000000e+00 9.3999996e+00 0.0000000e+00 
4.0534732e-01 9.6340141e+00 0.0000000e+00 
2.7881753e-01 9.8140564e+00 0.0000000e+00 
6.7177695e-01 9.3303623e+00 0.0000000e+00 
4.9604306e-01 9.4256926e+00 0.0000000e+00 
8.4713864e-01 9.2343493e+00 0.0000000e+00 
2.0000000e-01 1.0000000e+01 0.0000000e+00 
1.0000000e+00 9.1999998e+00 0.0000000e+00 
3.0000001e-01 9.4803848e+00 0.0000000e+00 
1.6755788e-01 9.6235323e+00 0.0000000e+00 
6.7617422e-01 9.1307087e+00 0.0000000e+00 
4.8477495e-01 9.2195473e+00 0.0000000e+00 
8.5255039e-01 9.0345669e+00 0.0000000e+00 
0.0000000e+00 1.0000000e+01 0.0000000e+00 
1.0000000e+00 9.0000000e+00 0.0000000e+00 
0.0000000e+00 9.8000002e+00 0.0000000e+00 
2.2804837e-01 9.2825413e+00 0.0000000e+00 
0.0000000e+00 9.6000004e+00 0.0000000e+00 
5.0581944e-01 9.0259790e+00 0.0000000e+00 
3.3078760e-01 9.1219988e+00 0.0000000e+00 
6.8160146e-01 8.9308100e+00 0.0000000e+00 
0.0000000e+00 9.3999996e+00 0.0000000e+00 
8.5683817e-01 8.8346405e+00 0.0000000e+00 
1.0000000e+00 8.8000002e+00 0.0000000e+00 
1.7320508e-01 9.1000004e+00 0.0000000e+00 
3.3639798e-01 8.9224386e+00 0.0000000e+00 
5.1166874e-01 8.8261728e+00 0.0000000e+00 
0.0000000e+00 9.1999998e+00 0.0000000e+00 
6.8573916e-01 8.7312880e+00 0.0000000e+00 
1.7320508e-01 8.8999996e+00 0.0000000e+00 
1.0000000e+00 8.6000004e+00 0.0000000e+00 
0.0000000e+00 9.0000000e+00 0.0000000e+00 
3.4077987e-01 8.7225189e+00 0.0000000e+00 
5.1553297e-01 8.6263428e+00 0.0000000e+00 
7.3636049e-01 8.5193882e+00 0.0000000e+00 
0.0000000e+00 8.8000002e+00 0.0000000e+00 
1.0000000e+00 8.3999996e+00 0.0000000e+00 
1.7061394e-01 8.6176825e+00 0.0000000e+00 
3.4670532e-01 8.5231361e+00 0.0000000e+00 
5.2180642e-01 8.4266043e+00 0.0000000e+00 
7.4737626e-01 8.3175163e+00 0.0000000e+00 
0.0000000e+00 8.6000004e+00 0.0000000e+00 
1.7467257e-01 8.4178057e+00 0.0000000e+00 
3.5083947e-01 8.3232317e+00 0.0000000e+00 
1.0000000e+00 8.1999998e+00 0.0000000e+00 
5.2511263e-01 8.2268429e+00 0.0000000e+00 
0.0000000e+00 8.3999996e+00 0.0000000e+00 
7.5983411e-01 8.1149063e+00 0.0000000e+00 
1.8103610e-01 8.2179594e+00 0.0000000e+00 
3.5745192e-01 8.1241884e+00 0.0000000e+00 
1.0000000e+00 8.0000000e+00 0.0000000e+00 
5.3222626e-01 8.0272846e+00 0.0000000e+00 
0.0000000e+00 8.1999998e+00 0.0000000e+00 
7.5571120e-01 7.9173551e+00 0.0000000e+00 
1.8344399e-01 8.0151854e+00 0.0000000e+00 
3.6146736e-01 7.9243879e+00 0.0000000e+00 
1.0000000e+00 7.8000002e+00 0.0000000e+00 
5.3374660e-01 7.8279252e+00 0.0000000e+00 
0.0000000e+00 8.0000000e+00 0.0000000e+00 
7.6374203e-01 7.7163153e+00 0.0000000e+00 
1.9437179e-01 7.8156433e+00 0.0000000e+00 
3.7308612e-01 7.7272835e+00 0.0000000e+00 
1.0000000e+00 7.5999999e+00 0.0000000e+00 
5.4554766e-01 7.6299233e+00 0.0000000e+00 
0.0000000e+00 7.8000002e+00 0.0000000e+00 
7.4744660e-01 7.5226874e+00 0.0000000e+00 
2.0444529e-01 7.6206732e+00 0.0000000e+00 
3.8187346e-01 7.5294333e+00 0.0000000e+00 
0.0000000e+00 7.5999999e+00 0.0000000e+00 
1.0000000e+00 7.4000001e+00 0.0000000e+00 
5.2131432e-01 7.4393973e+00 0.0000000e+00 
1.9729473e-01 7.4537926e+00 0.0000000e+00 
7.0935732e-01 7.3327885e+00 0.0000000e+00 
3.5328710e-01 7.3320160e+00 0.0000000e+00 
8.4863865e-01 7.2198439e+00 0.0000000e+00 
0.0000000e+00 7.4000001e+00 0.0000000e+00 
5.3123343e-01 7.2420211e+00 0.0000000e+00 
1.0000000e+00 7.1999998e+00 0.0000000e+00 
1.7718045e-01 7.2569203e+00 0.0000000e+00 
6.6225648e-01 7.1541371e+00 0.0000000e+00 
3.4724638e-01 7.1689978e+00 0.0000000e+00 
8.3611876e-01 7.0656843e+00 0.0000000e+00 
0.0000000e+00 7.1999998e+00 0.0000000e+00 
4.9535713e-01 7.0473509e+00 0.0000000e+00 
1.0000000e+00 7.0000000e+00 0.0000000e+00 
1.7387313e-01 7.0734706e+00 0.0000000e+00 
6.6474640e-01 6.9560146e+00 0.0000000e+00 
3.4690949e-01 6.9773350e+00 0.0000000e+00 
8.4107113e-01 6.8641090e+00 0.0000000e+00 
0.0000000e+00 7.0000000e+00 0.0000000e+00 
5.2873749e-01 6.8578229e+00 0.0000000e+00 
1.0000000e+00 6.8000002e+00 0.0000000e+00 
1.7445621e-01 6.8769779e+00 0.0000000e+00 
6.7736709e-01 6.7575765e+00 0.0000000e+00 
3.4595537e-01 6.7778087e+00 0.0000000e+00 
8.3462298e-01 6.6689000e+00 0.0000000e+00 
0.0000000e+00 6.8000002e+00 0.0000000e+00 
5.0501287e-01 6.6597099e+00 0.0000000e+00 
1.0000000e+00 6.5999999e+00 0.0000000e+00 
1.8097465e-01 6.6789780e+00 0.0000000e+00 
6.6962856e-01 6.5595260e+00 0.0000000e+00 
3.2066780e-01 6.5871606e+00 0.0000000e+00 
8.3965176e-01 6.4710097e+00 0.0000000e+00 
0.0000000e+00 6.5999999e+00 0.0000000e+00 
4.8932999e-01 6.4914999e+00 0.0000000e+00 
1.0000000e+00 6.4000001e+00 0.0000000e+00 
1.4997987e-01 6.4839683e+00 0.0000000e+00 
6.6350561e-01 6.3954086e+00 0.0000000e+00 
3.2280096e-01 6.3877153e+00 0.0000000e+00 
8.3153027e-01 6.2889266e+00 0.0000000e+00 
0.0000000e+00 6.4000001e+00 0.0000000e+00 
4.9695736e-01 6.2927222e+00 0.0000000e+00 
1.0000000e+00 6.1999998e+00 0.0000000e+00 
1.6071729e-01 6.2864423e+00 0.0000000e+00 
6.5358984e-01 6.1999998e+00 0.0000000e+00 
3.3329538e-01 6.1896143e+00 0.0000000e+00 
8.1998920e-01 6.0895286e+00 0.0000000e+00 
0.0000000e+00 6.1999998e+00 0.0000000e+00 
4.8038477e-01 6.0999999e+00 0.0000000e+00 
1.7059118e-01 6.0888028e+00 0.0000000e+00 
1.0000000e+00 6.0000000e+00 0.0000000e+00 
6.5358984e-01 6.0000000e+00 0.0000000e+00 
3.0717969e-01 6.0000000e+00 0.0000000e+00 
8.2679492e-01 5.9000001e+00 0.0000000e+00 
0.0000000e+00 6.0000000e+00 0.0000000e+00 
4.8038477e-01 5.9000001e+00 0.0000000e+00 
1.3397460e-01 5.9000001e+00 0.0000000e+00 
1.0000000e+00 5.8000002e+00 0.0000000e+00 
6.5358984e-01 5.8000002e+00 0.0000000e+00 
3.0717969e-01 5.8000002e+00 0.0000000e+00 
8.2679492e-01 5.6999998e+00 0.0000000e+00 
0.0000000e+00 5.8000002e+00 0.0000000e+00 
4.8038477e-01 5.6999998e+00 0.0000000e+00 
1.3397460e-01 5.6999998e+00 0.0000000e+00 
1.0000000e+00 5.5999999e+00 0.0000000e+00 
6.5358984e-01 5.5999999e+00 0.0000000e+00 
3.2231969e-01 5.6385756e+00 0.0000000e+00 
8.2679492e-01 5.5000000e+00 0.0000000e+00 
0.0000000e+00 5.5999999e+00 0.0000000e+00 
4.8038477e-01 5.5000000e+00 0.0000000e+00 
1.7059118e-01 5.5111971e+00 0.0000000e+00 
1.0000000e+00 5.4000001e+00 0.0000000e+00 
6.5358984e-01 5.4000001e+00 0.0000000e+00 
3.3329538e-01 5.3896141e+00 0.0000000e+00 
8.2679492e-01 5.3000002e+00 0.0000000e+00 
0.0000000e+00 5.4000001e+00 0.0000000e+00 
4.8038477e-01 5.3000002e+00 0.0000000e+00 
1.7059118e-01 5.2888031e+00 0.0000000e+00 
1.0000000e+00 5.1999998e+00 0.0000000e+00 
6.5358984e-01 5.1999998e+00 0.0000000e+00 
3.0717969e-01 5.1999998e+00 0.0000000e+00 
8.2679492e-01 5.0999999e+00 0.0000000e+00 
0.0000000e+00 5.1999998e+00 0.0000000e+00 
4.8038477e-01 5.0999999e+00 0.0000000e+00 
1.3397460e-01 5.0999999e+00 0.0000000e+00 
1.0000000e+00 5.0000000e+00 0.0000000e+00 
6.5358984e-01 5.0000000e+00 0.0000000e+00 
3.0717969e-01 5.0000000e+00 0.0000000e+00 
0.0000000e+00 5.0000000e+00 0.0000000e+00 
8.2679492e-01 4.9000001e+00 0.0000000e+00 
4.8038477e-01 4.9000001e+00 0.0000000e+00 
1.3397460e-01 4.9000001e+00 0.0000000e+00 
1.0000000e+00 4.8000002e+00 0.0000000e+00 
6.5358984e-01 4.8000002e+00 0.0000000e+00 
3.0717969e-01 4.8000002e+00 0.0000000e+00 
0.0000000e+00 4.8000002e+00 0.0000000e+00 
8.2679492e-01 4.6999998e+00 0.0000000e+00 
4.8038477e-01 4.6999998e+00 0.0000000e+00 
1.3397460e-01 4.6999998e+00 0.0000000e+00 
1.0000000e+00 4.5999999e+00 0.0000000e+00 
6.5358984e-01 4.5999999e+00 0.0000000e+00 
3.0717969e-01 4.5999999e+00 0.0000000e+00 
0.0000000e+00 4.5999999e+00 0.0000000e+00 
8.2679492e-01 4.5000000e+00 0.0000000e+00 
4.8038477e-01 4.5000000e+00 0.0000000e+00 
1.3397460e-01 4.5000000e+00 0.0000000e+00 
1.0000000e+00 4.4000001e+00 0.0000000e+00 
6.5358984e-01 4.4000001e+00 0.0000000e+00 
3.0717969e-01 4.4000001e+00 0.0000000e+00 
8.3046603e-01 4.3165317e+00 0.0000000e+00 
0.0000000e+00 4.4000001e+00 0.0000000e+00 
4.8038477e-01 4.3000002e+00 0.0000000e+00 
1.7059118e-01 4.3111973e+00 0.0000000e+00 
6.6123927e-01 4.2184782e+00 0.0000000e+00 
1.0000000e+00 4.1999998e+00 0.0000000e+00 
3.3329538e-01 4.2103858e+00 0.0000000e+00 
8.3268768e-01 4.1176395e+00 0.0000000e+00 
0.0000000e+00 4.1999998e+00 0.0000000e+00 
4.9695736e-01 4.1072779e+00 0.0000000e+00 
1.6071729e-01 4.1135573e+00 0.0000000e+00 
1.0000000e+00 4.0000000e+00 0.0000000e+00 
3.2280096e-01 4.0122848e+00 0.0000000e+00 
6.4947557e-01 3.9632084e+00 0.0000000e+00 
8.4590596e-01 3.9203768e+00 0.0000000e+00 
0.0000000e+00 4.0000000e+00 0.0000000e+00 
4.7627035e-01 3.9377375e+00 0.0000000e+00 
1.4997987e-01 3.9160316e+00 0.0000000e+00 
1.0000000e+00 3.8000000e+00 0.0000000e+00 
3.2066780e-01 3.8128395e+00 0.0000000e+00 
5.1165128e-01 3.7661045e+00 0.0000000e+00 
0.0000000e+00 3.8000000e+00 0.0000000e+00 
7.4880123e-01 3.7184730e+00 0.0000000e+00 
1.8097465e-01 3.7210221e+00 0.0000000e+00 
1.0000000e+00 3.5999999e+00 0.0000000e+00 
3.4595537e-01 3.6221914e+00 0.0000000e+00 
5.2873749e-01 3.5421770e+00 0.0000000e+00 
0.0000000e+00 3.5999999e+00 0.0000000e+00 
1.7445621e-01 3.5230222e+00 0.0000000e+00 
7.1247655e-01 3.4632580e+00 0.0000000e+00 
1.0000000e+00 3.4000001e+00 0.0000000e+00 
3.4690949e-01 3.4226651e+00 0.0000000e+00 
0.0000000e+00 3.4000001e+00 0.0000000e+00 
5.1989859e-01 3.3223066e+00 0.0000000e+00 
8.2679492e-01 3.3000000e+00 0.0000000e+00 
1.7356591e-01 3.3231418e+00 0.0000000e+00 
1.0000000e+00 3.2000000e+00 0.0000000e+00 
3.4647828e-01 3.2226951e+00 0.0000000e+00 
6.5358984e-01 3.2000000e+00 0.0000000e+00 
5.0604391e-01 3.1465836e+00 0.0000000e+00 
[...]
POINT_DATA 340
FIELD FieldData 3
DISPLACEMENT 3 340  float
-1.0929724e-06 7.4920159e-08 0.0000000e+00 
-1.0633503e-06 7.4898843e-08 0.0000000e+00 
-1.0929650e-06 4.5302610e-08 0.0000000e+00 
-1.0647203e-06 3.4865486e-08 0.0000000e+00 
-1.0393752e-06 5.1450282e-08 0.0000000e+00 
-1.0929625e-06 1.5692478e-08 0.0000000e+00 
-1.0337113e-06 7.4873917e-08 0.0000000e+00 
-1.0673156e-06 8.8032015e-10 0.0000000e+00 
-1.0323373e-06 2.0990004e-08 0.0000000e+00 
-1.0091306e-06 5.1531853e-08 0.0000000e+00 
-1.0929759e-06 -1.3912691e-08 0.0000000e+00 
-1.0040638e-06 7.4828868e-08 0.0000000e+00 
-1.0387524e-06 -1.3132142e-08 0.0000000e+00 
-1.0654505e-06 -3.1857333e-08 0.0000000e+00 
-9.9371084e-07 2.6237005e-08 0.0000000e+00 
-1.0078531e-06 2.7203523e-10 0.0000000e+00 
-9.7948612e-07 5.2140191e-08 0.0000000e+00 
-1.0930034e-06 -4.3525343e-08 0.0000000e+00 
-9.7441796e-07 7.4754844e-08 0.0000000e+00 
-1.0159858e-06 -2.8713744e-08 0.0000000e+00 
-1.0372321e-06 -4.8329007e-08 0.0000000e+00 
-9.6410361e-07 2.6846273e-08 0.0000000e+00 
-9.7727832e-07 -1.3995719e-09 0.0000000e+00 
-9.4987519e-07 5.2858482e-08 0.0000000e+00 
-1.0930351e-06 -7.3145031e-08 0.0000000e+00 
-9.4478781e-07 7.4642756e-08 0.0000000e+00 
-1.0634114e-06 -7.3147923e-08 0.0000000e+00 
-9.8665146e-07 -3.9340911e-08 0.0000000e+00 
-1.0337749e-06 -7.3145763e-08 0.0000000e+00 
-9.4857216e-07 1.6927982e-09 0.0000000e+00 
-9.6282417e-07 -2.4141567e-08 0.0000000e+00 
-9.3447926e-07 2.7589470e-08 0.0000000e+00 
-1.0041225e-06 -7.3127104e-08 0.0000000e+00 
-9.2027466e-07 5.3380212e-08 0.0000000e+00 
-9.1521173e-07 7.4476070e-08 0.0000000e+00 
-9.5958558e-07 -4.7413110e-08 0.0000000e+00 
-9.3323763e-07 -2.3286328e-08 0.0000000e+00 
-9.1897613e-07 2.5364073e-09 0.0000000e+00 
-9.7446832e-07 -7.3087165e-08 0.0000000e+00 
-9.0495701e-07 2.8125031e-08 0.0000000e+00 
-9.2993440e-07 -4.7353165e-08 0.0000000e+00 
-8.8565992e-07 7.4274418e-08 0.0000000e+00 
-9.4479719e-07 -7.3010050e-08 0.0000000e+00 
-9.0364819e-07 -2.2607729e-08 0.0000000e+00 
-8.8943136e-07 3.0830287e-09 0.0000000e+00 
-8.7368323e-07 3.5445243e-08 0.0000000e+00 
-9.1517074e-07 -7.2887289e-08 0.0000000e+00 
-8.5620775e-07 7.4041026e-08 0.0000000e+00 
-8.8818013e-07 -4.7609966e-08 0.0000000e+00 
-8.7420227e-07 -2.1698328e-08 0.0000000e+00 
-8.5997664e-07 3.9698791e-09 0.0000000e+00 
-8.4397362e-07 3.6918944e-08 0.0000000e+00 
-8.8561967e-07 -7.2725690e-08 0.0000000e+00 
-8.5871596e-07 -4.6890055e-08 0.0000000e+00 
-8.4477210e-07 -2.1042975e-08 0.0000000e+00 
-8.2684642e-07 7.3758443e-08 0.0000000e+00 
-8.3061536e-07 4.4169965e-09 0.0000000e+00 
-8.5615852e-07 -7.2518787e-08 0.0000000e+00 
-8.1426305e-07 3.8572434e-08 0.0000000e+00 
-8.2935361e-07 -4.5808999e-08 0.0000000e+00 
-8.1557317e-07 -2.0018126e-08 0.0000000e+00 
-7.9760116e-07 7.3424843e-08 0.0000000e+00 
-8.0139625e-07 5.4108575e-09 0.0000000e+00 
-8.2679782e-07 -7.2269124e-08 0.0000000e+00 
-7.8541103e-07 3.7785771e-08 0.0000000e+00 
-7.9968004e-07 -4.5281471e-08 0.0000000e+00 
-7.8638516e-07 -1.9364245e-08 0.0000000e+00 
-7.6848926e-07 7.3050252e-08 0.0000000e+00 
-7.7233591e-07 5.5868945e-09 0.0000000e+00 
-7.9755449e-07 -7.1975471e-08 0.0000000e+00 
-7.5619619e-07 3.8735170e-08 0.0000000e+00 
-7.7060861e-07 -4.3494772e-08 0.0000000e+00 
-7.5772448e-07 -1.7605958e-08 0.0000000e+00 
-7.3953282e-07 7.2624239e-08 0.0000000e+00 
-7.4362060e-07 7.2322059e-09 0.0000000e+00 
-7.6844714e-07 -7.1641388e-08 0.0000000e+00 
-7.2820143e-07 3.6158461e-08 0.0000000e+00 
-7.4234271e-07 -4.1820584e-08 0.0000000e+00 
-7.2910962e-07 -1.6262549e-08 0.0000000e+00 
-7.3949298e-07 -7.1266065e-08 0.0000000e+00 
-7.1072964e-07 7.2169343e-08 0.0000000e+00 
-7.1614039e-07 3.6970080e-09 0.0000000e+00 
-7.1828356e-07 -4.2641673e-08 0.0000000e+00 
-7.0089584e-07 3.0473188e-08 0.0000000e+00 
-7.0074304e-07 -2.0242382e-08 0.0000000e+00 
-6.8483234e-07 5.0158718e-08 0.0000000e+00 
-7.1070406e-07 -7.0836535e-08 0.0000000e+00 
-6.8785965e-07 5.0661941e-09 0.0000000e+00 
-6.8214632e-07 7.1650256e-08 0.0000000e+00 
-6.9007672e-07 -4.5233087e-08 0.0000000e+00 
-6.7535615e-07 2.3597199e-08 0.0000000e+00 
-6.7745947e-07 -2.0996225e-08 0.0000000e+00 
-6.6288720e-07 4.8075940e-08 0.0000000e+00 
-6.8210471e-07 -7.0351156e-08 0.0000000e+00 
-6.6014843e-07 -3.3503280e-11 0.0000000e+00 
-6.5375377e-07 7.1074638e-08 0.0000000e+00 
-6.6396501e-07 -4.5404988e-08 0.0000000e+00 
-6.4725879e-07 2.3754833e-08 0.0000000e+00 
-6.5025921e-07 -2.0888672e-08 0.0000000e+00 
-6.3442343e-07 4.8351495e-08 0.0000000e+00 
-6.5371637e-07 -6.9819862e-08 0.0000000e+00 
-6.3338189e-07 4.6284092e-09 0.0000000e+00 
-6.2559616e-07 7.0449524e-08 0.0000000e+00 
-6.3619649e-07 -4.4973483e-08 0.0000000e+00 
-6.1935685e-07 2.5286221e-08 0.0000000e+00 
-6.2217111e-07 -2.0859042e-08 0.0000000e+00 
-6.0707868e-07 4.7008736e-08 0.0000000e+00 
-6.2555665e-07 -6.9242653e-08 0.0000000e+00 
-6.0563821e-07 1.2879589e-09 0.0000000e+00 
-5.9768490e-07 6.9781258e-08 0.0000000e+00 
-6.0844854e-07 -4.3681549e-08 0.0000000e+00 
-5.9174994e-07 2.3974984e-08 0.0000000e+00 
-5.9557829e-07 -2.4186425e-08 0.0000000e+00 
-5.7962671e-07 4.7232774e-08 0.0000000e+00 
-5.9765131e-07 -6.8628921e-08 0.0000000e+00 
-5.8228045e-07 -8.8932262e-10 0.0000000e+00 
-5.7004337e-07 6.9060974e-08 0.0000000e+00 
-5.8139750e-07 -4.7547047e-08 0.0000000e+00 
-5.6907089e-07 2.2929839e-08 0.0000000e+00 
-5.6800656e-07 -2.3661714e-08 0.0000000e+00 
-5.5459816e-07 4.5663651e-08 0.0000000e+00 
-5.7000000e-07 -6.7940277e-08 0.0000000e+00 
-5.5493371e-07 1.4399174e-10 0.0000000e+00 
-5.4269100e-07 6.8298910e-08 0.0000000e+00 
-5.5423709e-07 -4.5609852e-08 0.0000000e+00 
-5.4232436e-07 2.1324082e-08 0.0000000e+00 
-5.4090100e-07 -2.1999577e-08 0.0000000e+00 
-5.2746759e-07 4.3581618e-08 0.0000000e+00 
-5.4264814e-07 -6.7222366e-08 0.0000000e+00 
-5.2870530e-07 -2.1058666e-09 0.0000000e+00 
-5.2735010e-07 -4.3782808e-08 0.0000000e+00 
-5.1564410e-07 6.7501773e-08 0.0000000e+00 
-5.1525302e-07 2.1065921e-08 0.0000000e+00 
-5.1525893e-07 -2.5269705e-08 0.0000000e+00 
-5.0198679e-07 4.3975064e-08 0.0000000e+00 
-5.1560113e-07 -6.6473888e-08 0.0000000e+00 
-5.0179000e-07 -2.0929691e-09 0.0000000e+00 
-5.0199452e-07 -4.8171525e-08 0.0000000e+00 
-4.8891690e-07 6.6647679e-08 0.0000000e+00 
-4.8850586e-07 2.0789148e-08 0.0000000e+00 
-4.8851115e-07 -2.4972321e-08 0.0000000e+00 
-4.7541857e-07 4.3396732e-08 0.0000000e+00 
-4.8886403e-07 -6.5639810e-08 0.0000000e+00 
-4.7521010e-07 -2.0770574e-09 0.0000000e+00 
-4.7543082e-07 -4.7576240e-08 0.0000000e+00 
-4.6253592e-07 6.5750470e-08 0.0000000e+00 
-4.6210459e-07 2.0497227e-08 0.0000000e+00 
-4.6716485e-07 -2.2732797e-08 0.0000000e+00 
-4.4920239e-07 4.2787882e-08 0.0000000e+00 
-4.6249210e-07 -6.4759064e-08 0.0000000e+00 
-4.4898670e-07 -2.0643534e-09 0.0000000e+00 
-4.5063780e-07 -4.2223203e-08 0.0000000e+00 
-4.3651175e-07 6.4811289e-08 0.0000000e+00 
-4.3606323e-07 2.0190173e-08 0.0000000e+00 
-4.3470723e-07 -2.0939375e-08 0.0000000e+00 
-4.2334869e-07 4.2149910e-08 0.0000000e+00 
-4.3647930e-07 -6.3874509e-08 0.0000000e+00 
-4.2312485e-07 -2.0642026e-09 0.0000000e+00 
-4.2189430e-07 -4.1537156e-08 0.0000000e+00 
-4.1085758e-07 6.3828374e-08 0.0000000e+00 
-4.1038683e-07 1.9868830e-08 0.0000000e+00 
-4.1041216e-07 -2.3963572e-08 0.0000000e+00 
-3.9787065e-07 4.1480252e-08 0.0000000e+00 
-4.1084226e-07 -6.2935243e-08 0.0000000e+00 
-3.9764808e-07 -2.0400766e-09 0.0000000e+00 
-3.9793596e-07 -4.5536314e-08 0.0000000e+00 
-3.8558713e-07 6.2798293e-08 0.0000000e+00 
-3.8509899e-07 1.9536994e-08 0.0000000e+00 
-3.8515017e-07 -2.3584295e-08 0.0000000e+00 
-3.8563832e-07 -6.1908132e-08 0.0000000e+00 
-3.7278372e-07 4.0778367e-08 0.0000000e+00 
-3.7256316e-07 -2.0082898e-09 0.0000000e+00 
-3.7291318e-07 -4.4787260e-08 0.0000000e+00 
-3.6071569e-07 6.1716072e-08 0.0000000e+00 
-3.6020560e-07 1.9192447e-08 0.0000000e+00 
-3.6028351e-07 -2.3169381e-08 0.0000000e+00 
-3.6084779e-07 -6.0851058e-08 0.0000000e+00 
-3.4809912e-07 4.0038078e-08 0.0000000e+00 
-3.4787638e-07 -1.9664079e-09 0.0000000e+00 
-3.4827198e-07 -4.3977561e-08 0.0000000e+00 
-3.3625861e-07 6.0569981e-08 0.0000000e+00 
-3.3571888e-07 1.8831168e-08 0.0000000e+00 
-3.3581492e-07 -2.2720346e-08 0.0000000e+00 
-3.3641334e-07 -5.9728471e-08 0.0000000e+00 
-3.2383406e-07 3.9249990e-08 0.0000000e+00 
-3.2360140e-07 -1.9162250e-09 0.0000000e+00 
-3.2402505e-07 -4.3121364e-08 0.0000000e+00 
-3.1224221e-07 5.9342611e-08 0.0000000e+00 
-3.1166218e-07 1.8447741e-08 0.0000000e+00 
-3.1176336e-07 -2.2236742e-08 0.0000000e+00 
-3.0197546e-07 3.8907842e-08 0.0000000e+00 
-3.1241314e-07 -5.8499936e-08 0.0000000e+00 
-2.9977005e-07 -1.8608262e-09 0.0000000e+00 
-3.0146708e-07 -3.7947817e-08 0.0000000e+00 
-2.9023371e-07 1.8963004e-08 0.0000000e+00 
-2.8869684e-07 5.8007384e-08 0.0000000e+00 
-2.8935062e-07 -1.8744121e-08 0.0000000e+00 
-2.7873941e-07 3.8245748e-08 0.0000000e+00 
-2.8886842e-07 -5.7227840e-08 0.0000000e+00 
-2.7725179e-07 5.6368271e-11 0.0000000e+00 
-2.7839718e-07 -3.8170807e-08 0.0000000e+00 
-2.6569222e-07 5.6535626e-08 0.0000000e+00 
-2.6648661e-07 -1.9440098e-08 0.0000000e+00 
-2.6076705e-07 1.7032853e-08 0.0000000e+00 
-2.5628779e-07 3.8751818e-08 0.0000000e+00 
-2.6578232e-07 -5.5821065e-08 0.0000000e+00 
-2.5791851e-07 -2.2159181e-09 0.0000000e+00 
-2.5584606e-07 -3.8392312e-08 0.0000000e+00 
-2.4329239e-07 5.4862074e-08 0.0000000e+00 
-2.4399836e-07 -1.9124503e-08 0.0000000e+00 
-2.3871411e-07 1.6762659e-09 0.0000000e+00 
-2.4326980e-07 -5.4250410e-08 0.0000000e+00 
-2.3363351e-07 2.7144404e-08 0.0000000e+00 
-2.3406143e-07 -3.3957214e-08 0.0000000e+00 
-2.2144799e-07 5.3246243e-08 0.0000000e+00 
-2.2301882e-07 -1.5931571e-08 0.0000000e+00 
-2.1433954e-07 3.3297727e-09 0.0000000e+00 
-2.2143030e-07 -5.2611757e-08 0.0000000e+00 
-2.1268406e-07 -3.3558393e-08 0.0000000e+00 
-2.0617189e-07 2.2195024e-08 0.0000000e+00 
-2.0046069e-07 5.1590138e-08 0.0000000e+00 
-2.0181436e-07 -1.5316253e-08 0.0000000e+00 
-2.0030336e-07 -5.0812702e-08 0.0000000e+00 
-1.9135972e-07 2.3065809e-09 0.0000000e+00 
-1.8953855e-07 3.2988083e-08 0.0000000e+00 
-1.9182670e-07 -3.2456910e-08 0.0000000e+00 
-1.8001877e-07 4.9556544e-08 0.0000000e+00 
-1.8130797e-07 -1.4811883e-08 0.0000000e+00 
-1.7903110e-07 1.5342971e-08 0.0000000e+00 
-1.7361174e-07 9.4069175e-10 0.0000000e+00 
-1.7994667e-07 -4.8883368e-08 0.0000000e+00 
-1.6949632e-07 3.1638084e-08 0.0000000e+00 
-1.7173198e-07 -3.1209172e-08 0.0000000e+00 
-1.6043366e-07 4.7419366e-08 0.0000000e+00 
-1.5944494e-07 1.4674398e-08 0.0000000e+00 
-1.5908874e-07 -9.0827905e-09 0.0000000e+00 
-1.6036647e-07 -4.6828941e-08 0.0000000e+00 
-1.5029835e-07 3.0191170e-08 0.0000000e+00 
-1.5008852e-07 -2.9212636e-08 0.0000000e+00 
-1.4169161e-07 4.5171195e-08 0.0000000e+00 
-1.4102763e-07 8.6715097e-09 0.0000000e+00 
-1.3964679e-07 -1.3602333e-08 0.0000000e+00 
-1.4170405e-07 -4.4650168e-08 0.0000000e+00 
-1.3201084e-07 2.8754174e-08 0.0000000e+00 
-1.3201851e-07 -2.8233785e-08 0.0000000e+00 
-1.2785017e-07 -1.7865212e-09 0.0000000e+00 
-1.2394158e-07 4.2795481e-08 0.0000000e+00 
-1.2278906e-07 1.3193609e-08 0.0000000e+00 
-1.2285236e-07 -1.5996465e-08 0.0000000e+00 
-1.2392755e-07 -4.2312237e-08 0.0000000e+00 
-1.1466003e-07 2.7115961e-08 0.0000000e+00 
-1.1410415e-07 -1.3468219e-09 0.0000000e+00 
-1.1464178e-07 -2.6617416e-08 0.0000000e+00 
-1.0712139e-07 4.0265189e-08 0.0000000e+00 
-1.0591891e-07 1.2424374e-08 0.0000000e+00 
-1.0596803e-07 -1.5071761e-08 0.0000000e+00 
-1.0709313e-07 -3.9822215e-08 0.0000000e+00 
-9.8316818e-08 2.5408223e-08 0.0000000e+00 
-9.7735402e-08 -1.2786158e-09 0.0000000e+00 
-9.8286669e-08 -2.4913097e-08 0.0000000e+00 
-9.1338549e-08 3.7597150e-08 0.0000000e+00 
-9.0072156e-08 1.1599599e-08 0.0000000e+00 
-9.0133049e-08 -1.4106391e-08 0.0000000e+00 
-9.1304841e-08 -3.7232272e-08 0.0000000e+00 
-8.3030770e-08 2.3616218e-08 0.0000000e+00 
-8.2409898e-08 -1.1964078e-09 0.0000000e+00 
-8.3136605e-08 -2.5995551e-08 0.0000000e+00 
-7.6642088e-08 3.4788382e-08 0.0000000e+00 
-7.5312208e-08 1.0723994e-08 0.0000000e+00 
-7.5370224e-08 -1.3039407e-08 0.0000000e+00 
-7.6577649e-08 -3.4408355e-08 0.0000000e+00 
-6.8861816e-08 2.1742151e-08 0.0000000e+00 
-6.8208031e-08 -1.1074974e-09 0.0000000e+00 
-6.8979951e-08 -2.3957588e-08 0.0000000e+00 
-6.3106675e-08 3.1830670e-08 0.0000000e+00 
-6.1697264e-08 9.7988728e-09 0.0000000e+00 
-6.1759430e-08 -1.1930283e-08 0.0000000e+00 
-6.3035948e-08 -3.1498871e-08 0.0000000e+00 
-5.6829716e-08 1.9169676e-08 0.0000000e+00 
-5.5184181e-08 -1.0130349e-09 0.0000000e+00 
-5.5989585e-08 -2.1803036e-08 0.0000000e+00 
-5.0749573e-08 2.8806690e-08 0.0000000e+00 
-4.9282271e-08 8.8546450e-09 0.0000000e+00 
-4.9349094e-08 -1.0771052e-08 0.0000000e+00 
-5.0678675e-08 -2.8449618e-08 0.0000000e+00 
-4.5127500e-08 1.8020184e-08 0.0000000e+00 
-4.3375977e-08 -9.1741570e-10 0.0000000e+00 
-4.4224592e-08 -1.9563753e-08 0.0000000e+00 
-3.9505643e-08 8.2592893e-09 0.0000000e+00 
-3.9639719e-08 2.5583276e-08 0.0000000e+00 
-3.8191647e-08 -9.5457304e-09 0.0000000e+00 
-3.9605183e-08 -2.5209133e-08 0.0000000e+00 
-3.4574484e-08 1.5744705e-08 0.0000000e+00 
-3.4292249e-08 -2.7662161e-10 0.0000000e+00 
-3.4134068e-08 -1.5544609e-08 0.0000000e+00 
-2.9562285e-08 7.3641222e-09 0.0000000e+00 
-2.9851126e-08 2.2270102e-08 0.0000000e+00 
-2.8754839e-08 -7.2180151e-09 0.0000000e+00 
-2.6744718e-08 1.4685552e-08 0.0000000e+00 
-2.9791677e-08 -2.1968702e-08 0.0000000e+00 
-2.4978847e-08 7.7124679e-10 0.0000000e+00 
-2.5023946e-08 -1.3776675e-08 0.0000000e+00 
-2.1193662e-08 7.0927779e-09 0.0000000e+00 
-2.1377135e-08 1.8811825e-08 0.0000000e+00 
-2.0192301e-08 -6.1529022e-09 0.0000000e+00 
-2.1355236e-08 -1.8486956e-08 0.0000000e+00 
-1.8183272e-08 1.2606562e-08 0.0000000e+00 
-1.7007439e-08 6.2093819e-10 0.0000000e+00 
-1.7123934e-08 -1.0748097e-08 0.0000000e+00 
-1.3877015e-08 5.9050489e-09 0.0000000e+00 
-1.4325447e-08 1.5158623e-08 0.0000000e+00 
-1.3160813e-08 -4.5089621e-09 0.0000000e+00 
-1.4316680e-08 -1.4958124e-08 0.0000000e+00 
-1.1583711e-08 1.0105264e-08 0.0000000e+00 
-1.0384712e-08 5.5860333e-10 0.0000000e+00 
-1.0712077e-08 -8.5418872e-09 0.0000000e+00 
-7.9926332e-09 4.5626978e-09 0.0000000e+00 
-8.7788141e-09 1.1400968e-08 0.0000000e+00 
-7.4130440e-09 -3.3519298e-09 0.0000000e+00 
-8.7322416e-09 -1.1251942e-08 0.0000000e+00 
-6.0240235e-09 7.1596067e-09 0.0000000e+00 
-4.9308007e-09 5.0771537e-10 0.0000000e+00 
-5.7188765e-09 -6.1365317e-09 0.0000000e+00 
-3.3105507e-09 2.9540561e-09 0.0000000e+00 
-4.7578634e-09 7.4353612e-09 0.0000000e+00 
-3.1817844e-09 -2.2071072e-09 0.0000000e+00 
-2.9661698e-09 4.4887987e-09 0.0000000e+00 
-4.6801611e-09 -7.3817064e-09 0.0000000e+00 
-1.5387824e-09 3.6926029e-10 0.0000000e+00 
-1.8702586e-09 -3.1981580e-09 0.0000000e+00 
-1.0455292e-09 1.8559934e-09 0.0000000e+00 
-1.9050712e-09 3.4365024e-09 0.0000000e+00 
-3.8681508e-10 -6.1990812e-10 0.0000000e+00 
-1.9771833e-09 -3.4120897e-09 0.0000000e+00 
0.0000000e+00 0.0000000e+00 0.0000000e+00 
0.0000000e+00 0.0000000e+00 0.0000000e+00 
0.0000000e+00 0.0000000e+00 0.0000000e+00 
0.0000000e+00 0.0000000e+00 0.0000000e+00 
0.0000000e+00 0.0000000e+00 0.0000000e+00 
0.0000000e+00 0.0000000e+00 0.0000000e+00 
REACTION 3 340  float
-1.0104442e-06 -1.6900376e-06 0.0000000e+00 
-2.9979060e-06 1.8058816e-07 0.0000000e+00 
9.1665822e-07 -2.1202168e-06 0.0000000e+00 
2.3129587e-06 3.0109408e-08 0.0000000e+00 
-1.1414754e-06 2.3972875e-06 0.0000000e+00 
1.6789852e-06 -1.5280341e-06 0.0000000e+00 
-2.0058878e-06 -1.4718589e-06 0.0000000e+00 
1.7935181e-06 -5.0211366e-07 0.0000000e+00 
2.8476250e-06 -6.8083051e-07 0.0000000e+00 
2.7392296e-06 -9.1095171e-07 0.0000000e+00 
-6.7894933e-07 2.2799190e-06 0.0000000e+00 
-5.4155735e-06 -3.4982057e-07 0.0000000e+00 
1.1529360e-07 -1.0514095e-06 0.0000000e+00 
-3.8485136e-06 -5.0731492e-06 0.0000000e+00 
5.3432605e-06 -2.8913615e-07 0.0000000e+00 
-3.6082210e-07 3.9414867e-06 0.0000000e+00 
-1.4335408e-06 -6.3430338e-07 0.0000000e+00 
6.9126423e-07 4.6950336e-07 0.0000000e+00 
-3.3730130e-06 1.9586455e-06 0.0000000e+00 
1.4391118e-06 -9.0810926e-07 0.0000000e+00 
-4.0106210e-07 4.8561487e-06 0.0000000e+00 
3.6284739e-06 9.5629582e-07 0.0000000e+00 
-1.5936627e-06 -2.9244875e-06 0.0000000e+00 
2.5487695e-06 1.7305950e-06 0.0000000e+00 
-1.8931187e-06 1.6827079e-06 0.0000000e+00 
-3.2277787e-06 -1.4133163e-07 0.0000000e+00 
3.6933179e-06 -4.3588880e-06 0.0000000e+00 
-4.5415532e-06 -1.8677968e-06 0.0000000e+00 
-5.3988157e-07 1.0635722e-06 0.0000000e+00 
2.0249772e-06 -9.3445669e-07 0.0000000e+00 
-1.4932974e-06 6.2467984e-07 0.0000000e+00 
-1.5864787e-06 -3.9979877e-06 0.0000000e+00 
1.1159798e-06 -3.3482272e-06 0.0000000e+00 
-1.1054004e-06 2.1824720e-08 0.0000000e+00 
-1.5351691e-06 -7.8051201e-08 0.0000000e+00 
1.0828400e-06 3.2416460e-06 0.0000000e+00 
-2.4153280e-07 -4.5981995e-08 0.0000000e+00 
9.0635643e-07 -8.5597327e-07 0.0000000e+00 
3.6205477e-06 2.3061725e-06 0.0000000e+00 
6.3111275e-07 2.8210866e-06 0.0000000e+00 
-1.2787791e-06 -2.4434573e-06 0.0000000e+00 
-1.8247185e-06 -2.2091476e-06 0.0000000e+00 
8.4374207e-08 -1.2324799e-06 0.0000000e+00 
7.1289111e-07 -2.8800727e-07 0.0000000e+00 
-8.6637357e-07 2.8714730e-06 0.0000000e+00 
3.3428855e-06 -7.3230240e-07 0.0000000e+00 
1.7958357e-06 1.0286083e-06 0.0000000e+00 
-2.2894844e-06 4.2097490e-06 0.0000000e+00 
5.6163941e-07 5.1933444e-07 0.0000000e+00 
2.0873460e-06 -7.1414661e-07 0.0000000e+00 
-1.1949531e-06 -3.6269612e-06 0.0000000e+00 
-1.6637415e-06 2.9229645e-06 0.0000000e+00 
-6.1383616e-07 -7.7978598e-08 0.0000000e+00 
-5.2659033e-07 9.4882108e-07 0.0000000e+00 
3.1950260e-06 1.8273143e-06 0.0000000e+00 
1.1611178e-06 -1.0206639e-06 0.0000000e+00 
1.1389706e-06 -6.9815940e-08 0.0000000e+00 
-9.0646594e-08 5.5387144e-08 0.0000000e+00 
-3.8563167e-06 -1.7838852e-06 0.0000000e+00 
-1.9438285e-06 -1.0626197e-06 0.0000000e+00 
1.4547250e-06 -2.5944321e-06 0.0000000e+00 
-1.0312277e-06 -9.1837484e-07 0.0000000e+00 
4.8912045e-07 3.8480007e-07 0.0000000e+00 
1.2229904e-06 1.0523989e-06 0.0000000e+00 
6.8038565e-07 -1.5947003e-06 0.0000000e+00 
3.5743142e-07 -7.2550711e-07 0.0000000e+00 
4.1659860e-07 1.4522984e-06 0.0000000e+00 
-2.0439268e-06 -7.5245742e-07 0.0000000e+00 
-9.4942760e-07 -7.1080615e-07 0.0000000e+00 
-5.1711314e-08 -1.1733040e-07 0.0000000e+00 
3.1352758e-07 5.2129656e-07 0.0000000e+00 
2.8288896e-06 2.8294469e-06 0.0000000e+00 
3.2886753e-06 1.2181636e-06 0.0000000e+00 
-1.3360893e-06 1.0678917e-06 0.0000000e+00 
-5.1350435e-07 1.6278703e-06 0.0000000e+00 
-2.3130278e-06 1.6757795e-09 0.0000000e+00 
-1.1859582e-06 -9.6072108e-07 0.0000000e+00 
2.1903320e-07 -1.9833574e-06 0.0000000e+00 
7.1519958e-07 4.2916707e-07 0.0000000e+00 
6.7995410e-07 -6.5331442e-08 0.0000000e+00 
-8.3527550e-07 4.0902052e-07 0.0000000e+00 
1.5145530e-06 5.9116422e-07 0.0000000e+00 
-1.2266987e-06 6.9566147e-07 0.0000000e+00 
-1.6500917e-06 3.8713911e-06 0.0000000e+00 
1.9949234e-06 -1.2548632e-06 0.0000000e+00 
1.8922390e-06 -3.0459257e-06 0.0000000e+00 
6.3861040e-07 -3.2351636e-07 0.0000000e+00 
1.7579151e-06 -6.3775570e-07 0.0000000e+00 
-2.4602284e-06 3.0061994e-07 0.0000000e+00 
-9.8436999e-07 -2.5103175e-06 0.0000000e+00 
-2.9275743e-06 -1.4110053e-06 0.0000000e+00 
3.7721713e-07 -3.7381106e-08 0.0000000e+00 
1.2608124e-06 1.2844562e-06 0.0000000e+00 
1.7996727e-07 7.1958050e-07 0.0000000e+00 
3.4725017e-06 -2.6443965e-07 0.0000000e+00 
-8.4370362e-07 3.5441325e-08 0.0000000e+00 
-7.3948030e-07 4.2683023e-06 0.0000000e+00 
-2.3044693e-06 -7.6310840e-07 0.0000000e+00 
1.4698774e-06 9.2359386e-07 0.0000000e+00 
4.8353570e-07 1.5519608e-06 0.0000000e+00 
-9.6913539e-07 -8.8974008e-07 0.0000000e+00 
6.5341914e-07 -2.1497697e-06 0.0000000e+00 
-2.0576342e-06 -9.3768523e-07 0.0000000e+00 
5.7270603e-07 -3.4475647e-06 0.0000000e+00 
-3.6038423e-06 8.0319899e-07 0.0000000e+00 
1.5695412e-06 -8.9858190e-08 0.0000000e+00 
2.4596459e-06 -3.5043695e-06 0.0000000e+00 
-1.1766753e-06 2.3749062e-07 0.0000000e+00 