# vtk DataFile Version 4.0
vtk output
ASCII
DATASET UNSTRUCTURED_GRID
POINTS 340 float
1.0000000e+00 1.0000000e+01 0.0000000e+00 
1.0000000e+00 9.8000002e+00 0.0000000e+00 
8.0000001e-01 1.0000000e+01 0.0000000e+00 
7.2964472e-01 9.8093147e+00 0.0000000e+00 
8.4182751e-01 9.6382694e+00 0.0000000e+00 
6.0000002e-01 1.0000000e+01 0.0000000e+00 
1.0000000e+00 9.6000004e+00 0.0000000e+00 
5.0000000e-01 9.8267946e+00 0.0000000e+00 
6.3604087e-01 9.5908260e+00 0.0000000e+00 
8.4263843e-01 9.4342804e+00 0.0000000e+00 
4.0000001e-01 1.0000000e+01 0.0000000e+00 
1.0000000e+00 9.3999996e+00 0.0000000e+00 
4.0534732e-01 9.6340141e+00 0.0000000e+00 
2.7881753e-01 9.8140564e+00 0.0000000e+00 
6.7177695e-01 9.3303623e+00 0.0000000e+00 
4.9604306e-01 9.4256926e+00 0.0000000e+00 
8.4713864e-01 9.2343493e+00 0.0000000e+00 
2.0000000e-01 1.0000000e+01 0.0000000e+00 
1.0000000e+00 9.1999998e+00 0.0000000e+00 
3.0000001e-01 9.4803848e+00 0.0000000e+00 
1.6755788e-01 9.6235323e+00 0.0000000e+00 
6.7617422e-01 9.1307087e+00 0.0000000e+00 
4.8477495e-01 9.2195473e+00 0.0000000e+00 
8.5255039e-01 9.0345669e+00 0.0000000e+00 
0.0000000e+00 1.0000000e+01 0.0000000e+00 
1.0000000e+00 9.0000000e+00 0.0000000e+00 
0.0000000e+00 9.8000002e+00 0.0000000e+00 
2.2804837e-01 9.2825413e+00 0.0000000e+00 
0.0000000e+00 9.6000004e+00 0.0000000e+00 
5.0581944e-01 9.0259790e+00 0.0000000e+00 
3.3078760e-01 9.1219988e+00 0.0000000e+00 
6.8160146e-01 8.9308100e+00 0.0000000e+00 
0.0000000e+00 9.3999996e+00 0.0000000e+00 
8.5683817e-01 8.8346405e+00 0.0000000e+00 
1.0000000e+00 8.8000002e+00 0.0000000e+00 
1.7320508e-01 9.1000004e+00 0.0000000e+00 
3.3639798e-01 8.9224386e+00 0.0000000e+00 
5.1166874e-01 8.8261728e+00 0.0000000e+00 
0.0000000e+00 9.1999998e+00 0.0000000e+00 
6.8573916e-01 8.7312880e+00 0.0000000e+00 
1.7320508e-01 8.8999996e+00 0.0000000e+00 
1.0000000e+00 8.6000004e+00 0.0000000e+00 
0.0000000e+00 9.0000000e+00 0.0000000e+00 
3.4077987e-01 8.7225189e+00 0.0000000e+00 
5.1553297e-01 8.6263428e+00 0.0000000e+00 
7.3636049e-01 8.5193882e+00 0.0000000e+00 
0.0000000e+00 8.8000002e+00 0.0000000e+00 
1.0000000e+00 8.3999996e+00 0.0000000e+00 
1.7061394e-01 8.6176825e+00 0.0000000e+00 
3.4670532e-01 8.5231361e+00 0.0000000e+00 
5.2180642e-01 8.4266043e+00 0.0000000e+00 
7.4737626e-01 8.3175163e+00 0.0000000e+00 
0.0000000e+00 8.6000004e+00 0.0000000e+00 
1.7467257e-01 8.4178057e+00 0.0000000e+00 
3.5083947e-01 8.3232317e+00 0.0000000e+00 
1.0000000e+00 8.1999998e+00 0.0000000e+00 
5.2511263e-01 8.2268429e+00 0.0000000e+00 
0.0000000e+00 8.3999996e+00 0.0000000e+00 
7.5983411e-01 8.1149063e+00 0.0000000e+00 
1.8103610e-01 8.2179594e+00 0.0000000e+00 
3.5745192e-01 8.1241884e+00 0.0000000e+00 
1.0000000e+00 8.0000000e+00 0.0000000e+00 
5.3222626e-01 8.0272846e+00 0.0000000e+00 
0.0000000e+00 8.1999998e+00 0.0000000e+00 
7.5571120e-01 7.9173551e+00 0.0000000e+00 
1.8344399e-01 8.0151854e+00 0.0000000e+00 
3.6146736e-01 7.9243879e+00 0.0000000e+00 
1.0000000e+00 7.8000002e+00 0.0000000e+00 
5.3374660e-01 7.8279252e+00 0.0000000e+00 
0.0000000e+00 8.0000000e+00 0.0000000e+00 
7.6374203e-01 7.7163153e+00 0.0000000e+00 
1.9437179e-01 7.8156433e+00 0.0000000e+00 
3.7308612e-01 7.7272835e+00 0.0000000e+00 
1.0000000e+00 7.5999999e+00 0.0000000e+00 
5.4554766e-01 7.6299233e+00 0.0000000e+00 
0.0000000e+00 7.8000002e+00 0.0000000e+00 
7.4744660e-01 7.5226874e+00 0.0000000e+00 
2.0444529e-01 7.6206732e+00 0.0000000e+00 
3.8187346e-01 7.5294333e+00 0.0000000e+00 
0.0000000e+00 7.5999999e+00 0.0000000e+00 
1.0000000e+00 7.4000001e+00 0.0000000e+00 
5.2131432e-01 7.4393973e+00 0.0000000e+00 
1.9729473e-01 7.4537926e+00 0.0000000e+00 
7.0935732e-01 7.3327885e+00 0.0000000e+00 
3.5328710e-01 7.3320160e+00 0.0000000e+00 
8.4863865e-01 7.2198439e+00 0.0000000e+00 
0.0000000e+00 7.4000001e+00 0.0000000e+00 
5.3123343e-01 7.2420211e+00 0.0000000e+00 
1.0000000e+00 7.1999998e+00 0.0000000e+00 
1.7718045e-01 7.2569203e+00 0.0000000e+00 
6.6225648e-01 7.1541371e+00 0.0000000e+00 
3.4724638e-01 7.1689978e+00 0.0000000e+00 
8.3611876e-01 7.0656843e+00 0.0000000e+00 
0.0000000e+00 7.1999998e+00 0.0000000e+00 
4.9535713e-01 7.0473509e+00 0.0000000e+00 
1.0000000e+00 7.0000000e+00 0.0000000e+00 
1.7387313e-01 7.0734706e+00 0.0000000e+00 
6.6474640e-01 6.9560146e+00 0.0000000e+00 
3.4690949e-01 6.9773350e+00 0.0000000e+00 
8.4107113e-01 6.8641090e+00 0.0000000e+00 
0.0000000e+00 7.0000000e+00 0.0000000e+00 
5.2873749e-01 6.8578229e+00 0.0000000e+00 
1.0000000e+00 6.8000002e+00 0.0000000e+00 
1.7445621e-01 6.8769779e+00 0.0000000e+00 
6.7736709e-01 6.7575765e+00 0.0000000e+00 
3.4595537e-01 6.7778087e+00 0.0000000e+00 
8.3462298e-01 6.6689000e+00 0.0000000e+00 
0.0000000e+00 6.8000002e+00 0.0000000e+00 
5.0501287e-01 6.6597099e+00 0.0000000e+00 
1.0000000e+00 6.5999999e+00 0.0000000e+00 
1.8097465e-01 6.6789780e+00 0.0000000e+00 
6.6962856e-01 6.5595260e+00 0.0000000e+00 
3.2066780e-01 6.5871606e+00 0.0000000e+00 
8.3965176e-01 6.4710097e+00 0.0000000e+00 
0.0000000e+00 6.5999999e+00 0.0000000e+00 
4.8932999e-01 6.4914999e+00 0.0000000e+00 
1.0000000e+00 6.4000001e+00 0.0000000e+00 
1.4997987e-01 6.4839683e+00 0.0000000e+00 
6.6350561e-01 6.3954086e+00 0.0000000e+00 
3.2280096e-01 6.3877153e+00 0.0000000e+00 
8.3153027e-01 6.2889266e+00 0.0000000e+00 
0.0000000e+00 6.4000001e+00 0.0000000e+00 
4.9695736e-01 6.2927222e+00 0.0000000e+00 
1.0000000e+00 6.1999998e+00 0.0000000e+00 
1.6071729e-01 6.2864423e+00 0.0000000e+00 
6.5358984e-01 6.1999998e+00 0.0000000e+00 
3.3329538e-01 6.1896143e+00 0.0000000e+00 
8.1998920e-01 6.0895286e+00 0.0000000e+00 
0.0000000e+00 6.1999998e+00 0.0000000e+00 
4.8038477e-01 6.0999999e+00 0.0000000e+00 
1.7059118e-01 6.0888028e+00 0.0000000e+00 
1.0000000e+00 6.0000000e+00 0.0000000e+00 
6.5358984e-01 6.0000000e+00 0.0000000e+00 
3.0717969e-01 6.0000000e+00 0.0000000e+00 
8.2679492e-01 5.9000001e+00 0.0000000e+00 
0.0000000e+00 6.0000000e+00 0.0000000e+00 
4.8038477e-01 5.9000001e+00 0.0000000e+00 
1.3397460e-01 5.9000001e+00 0.0000000e+00 
1.0000000e+00 5.8000002e+00 0.0000000e+00 
6.5358984e-01 5.8000002e+00 0.0000000e+00 
3.0717969e-01 5.8000002e+00 0.0000000e+00 
8.2679492e-01 5.6999998e+00 0.0000000e+00 
0.0000000e+00 5.8000002e+00 0.0000000e+00 
4.8038477e-01 5.6999998e+00 0.0000000e+00 
1.3397460e-01 5.6999998e+00 0.0000000e+00 
1.0000000e+00 5.5999999e+00 0.0000000e+00 
6.5358984e-01 5.5999999e+00 0.0000000e+00 
3.2231969e-01 5.6385756e+00 0.0000000e+00 
8.2679492e-01 5.5000000e+00 0.0000000e+00 
0.0000000e+00 5.5999999e+00 0.0000000e+00 
4.8038477e-01 5.5000000e+00 0.0000000e+00 
1.7059118e-01 5.5111971e+00 0.0000000e+00 
1.0000000e+00 5.4000001e+00 0.0000000e+00 
6.5358984e-01 5.4000001e+00 0.0000000e+00 
3.3329538e-01 5.3896141e+00 0.0000000e+00 
8.2679492e-01 5.3000002e+00 0.0000000e+00 
0.0000000e+00 5.4000001e+00 0.0000000e+00 
4.8038477e-01 5.3000002e+00 0.0000000e+00 
1.7059118e-01 5.2888031e+00 0.0000000e+00 
1.0000000e+00 5.1999998e+00 0.0000000e+00 
6.5358984e-01 5.1999998e+00 0.0000000e+00 
3.0717969e-01 5.1999998e+00 0.0000000e+00 
8.2679492e-01 5.0999999e+00 0.0000000e+00 
0.0000000e+00 5.1999998e+00 0.0000000e+00 
4.8038477e-01 5.0999999e+00 0.0000000e+00 
1.3397460e-01 5.0999999e+00 0.0000000e+00 
1.0000000e+00 5.0000000e+00 0.0000000e+00 
6.5358984e-01 5.0000000e+00 0.0000000e+00 
3.0717969e-01 5.0000000e+00 0.0000000e+00 
0.0000000e+00 5.0000000e+00 0.0000000e+00 
8.2679492e-01 4.9000001e+00 0.0000000e+00 
4.8038477e-01 4.9000001e+00 0.0000000e+00 
1.3397460e-01 4.9000001e+00 0.0000000e+00 
1.0000000e+00 4.8000002e+00 0.0000000e+00 
6.5358984e-01 4.8000002e+00 0.0000000e+00 
3.0717969e-01 4.8000002e+00 0.0000000e+00 
0.0000000e+00 4.8000002e+00 0.0000000e+00 
8.2679492e-01 4.6999998e+00 0.0000000e+00 
4.8038477e-01 4.6999998e+00 0.0000000e+00 
1.3397460e-01 4.6999998e+00 0.0000000e+00 
1.0000000e+00 4.5999999e+00 0.0000000e+00 
6.5358984e-01 4.5999999e+00 0.0000000e+00 
3.0717969e-01 4.5999999e+00 0.0000000e+00 
0.0000000e+00 4.5999999e+00 0.0000000e+00 
8.2679492e-01 4.5000000e+00 0.0000000e+00 
4.8038477e-01 4.5000000e+00 0.0000000e+00 
1.3397460e-01 4.5000000e+00 0.0000000e+00 
1.0000000e+00 4.4000001e+00 0.0000000e+00 
6.5358984e-01 4.4000001e+00 0.0000000e+00 
3.0717969e-01 4.4000001e+00 0.0000000e+00 
8.3046603e-01 4.3165317e+00 0.0000000e+00 
0.0000000e+00 4.4000001e+00 0.0000000e+00 
4.8038477e-01 4.3000002e+00 0.0000000e+00 
1.7059118e-01 4.3111973e+00 0.0000000e+00 
6.6123927e-01 4.2184782e+00 0.0000000e+00 
1.0000000e+00 4.1999998e+00 0.0000000e+00 
3.3329538e-01 4.2103858e+00 0.0000000e+00 
8.3268768e-01 4.1176395e+00 0.0000000e+00 
0.0000000e+00 4.1999998e+00 0.0000000e+00 
4.9695736e-01 4.1072779e+00 0.0000000e+00 
1.6071729e-01 4.1135573e+00 0.0000000e+00 
1.0000000e+00 4.0000000e+00 0.0000000e+00 
3.2280096e-01 4.0122848e+00 0.0000000e+00 
6.4947557e-01 3.9632084e+00 0.0000000e+00 
8.4590596e-01 3.9203768e+00 0.0000000e+00 
0.0000000e+00 4.0000000e+00 0.0000000e+00 
4.7627035e-01 3.9377375e+00 0.0000000e+00 
1.4997987e-01 3.9160316e+00 0.0000000e+00 
1.0000000e+00 3.8000000e+00 0.0000000e+00 
3.2066780e-01 3.8128395e+00 0.0000000e+00 
5.1165128e-01 3.7661045e+00 0.0000000e+00 
0.0000000e+00 3.8000000e+00 0.0000000e+00 
7.4880123e-01 3.7184730e+00 0.0000000e+00 
1.8097465e-01 3.7210221e+00 0.0000000e+00 
1.0000000e+00 3.5999999e+00 0.0000000e+00 
3.4595537e-01 3.6221914e+00 0.0000000e+00 
5.2873749e-01 3.5421770e+00 0.0000000e+00 
0.0000000e+00 3.5999999e+00 0.0000000e+00 
1.7445621e-01 3.5230222e+00 0.0000000e+00 
7.1247655e-01 3.4632580e+00 0.0000000e+00 
1.0000000e+00 3.4000001e+00 0.0000000e+00 
3.4690949e-01 3.4226651e+00 0.0000000e+00 
0.0000000e+00 3.4000001e+00 0.0000000e+00 
5.1989859e-01 3.3223066e+00 0.0000000e+00 
8.2679492e-01 3.3000000e+00 0.0000000e+00 
1.7356591e-01 3.3231418e+00 0.0000000e+00 
1.0000000e+00 3.2000000e+00 0.0000000e+00 
3.4647828e-01 3.2226951e+00 0.0000000e+00 
6.5358984e-01 3.2000000e+00 0.0000000e+00 
5.0604391e-01 3.1465836e+00 0.0000000e+00 
[...]
POINT_DATA 340
FIELD FieldData 3
DISPLACEMENT 3 340  float
-1.9725410e-07 1.4164226e-08 0.0000000e+00 
-1.9175532e-07 1.4155166e-08 0.0000000e+00 
-1.9725069e-07 8.6664329e-09 0.0000000e+00 
-1.9200688e-07 6.7242256e-09 0.0000000e+00 
-1.8730267e-07 9.7981196e-09 0.0000000e+00 
-1.9724834e-07 3.1702523e-09 0.0000000e+00 
-1.8625285e-07 1.4145320e-08 0.0000000e+00 
-1.9248675e-07 4.1678652e-10 0.0000000e+00 
-1.8599403e-07 4.1432950e-09 0.0000000e+00 
-1.8168735e-07 9.8075219e-09 0.0000000e+00 
-1.9724943e-07 -2.3248494e-09 0.0000000e+00 
-1.8074856e-07 1.4131100e-08 0.0000000e+00 
-1.8718337e-07 -2.1884194e-09 0.0000000e+00 
-1.9213923e-07 -5.6599290e-09 0.0000000e+00 
-1.7882250e-07 5.1100790e-09 0.0000000e+00 
-1.8144691e-07 2.9428623e-10 0.0000000e+00 
-1.7618342e-07 9.9141761e-09 0.0000000e+00 
-1.9725361e-07 -7.8215781e-09 0.0000000e+00 
-1.7524461e-07 1.4110580e-08 0.0000000e+00 
-1.8295583e-07 -5.0835687e-09 0.0000000e+00 
-1.8690002e-07 -8.7215772e-09 0.0000000e+00 
-1.7332538e-07 5.2174243e-09 0.0000000e+00 
-1.7576981e-07 -2.0663877e-11 0.0000000e+00 
-1.7068609e-07 1.0040447e-08 0.0000000e+00 
-1.9725867e-07 -1.3319836e-08 0.0000000e+00 
-1.6974407e-07 1.4081788e-08 0.0000000e+00 
-1.9175955e-07 -1.3324891e-08 0.0000000e+00 
-1.7750881e-07 -7.0597390e-09 0.0000000e+00 
-1.8625764e-07 -1.3328849e-08 0.0000000e+00 
-1.7044009e-07 5.4831223e-10 0.0000000e+00 
-1.7308507e-07 -4.2423753e-09 0.0000000e+00 
-1.6782568e-07 5.3490345e-09 0.0000000e+00 
-1.8075227e-07 -1.3329220e-08 0.0000000e+00 
-1.6519169e-07 1.0129272e-08 0.0000000e+00 
-1.6425530e-07 1.4041124e-08 0.0000000e+00 
-1.7248310e-07 -8.5606215e-09 0.0000000e+00 
-1.6759202e-07 -4.0872616e-09 0.0000000e+00 
-1.6494610e-07 6.9976791e-10 0.0000000e+00 
-1.7524651e-07 -1.3324963e-08 0.0000000e+00 
-1.6234640e-07 5.4415805e-09 0.0000000e+00 
-1.6697800e-07 -8.5520169e-09 0.0000000e+00 
-1.5877180e-07 1.3992860e-08 0.0000000e+00 
-1.6973708e-07 -1.3312627e-08 0.0000000e+00 
-1.6209999e-07 -3.9647778e-09 0.0000000e+00 
-1.5946338e-07 7.9599805e-10 0.0000000e+00 
-1.5654497e-07 6.7901169e-09 0.0000000e+00 
-1.6423735e-07 -1.3290366e-08 0.0000000e+00 
-1.5330995e-07 1.3937695e-08 0.0000000e+00 
-1.5922897e-07 -8.6019023e-09 0.0000000e+00 
-1.5663666e-07 -3.7993688e-09 0.0000000e+00 
-1.5399979e-07 9.5486030e-10 0.0000000e+00 
-1.5103608e-07 7.0542003e-09 0.0000000e+00 
-1.5875401e-07 -1.3259662e-08 0.0000000e+00 
-1.5376399e-07 -8.4689162e-09 0.0000000e+00 
-1.5117919e-07 -3.6807724e-09 0.0000000e+00 
-1.4786785e-07 1.3871839e-08 0.0000000e+00 
-1.4855662e-07 1.0320858e-09 0.0000000e+00 
-1.5329022e-07 -1.3219110e-08 0.0000000e+00 
-1.4553045e-07 7.3505682e-09 0.0000000e+00 
-1.4832101e-07 -8.2682616e-09 0.0000000e+00 
-1.4576797e-07 -3.4934897e-09 0.0000000e+00 
-1.4245100e-07 1.3794891e-08 0.0000000e+00 
-1.4314344e-07 1.2102628e-09 0.0000000e+00 
-1.4784825e-07 -1.3169262e-08 0.0000000e+00 
-1.4018752e-07 7.1945756e-09 0.0000000e+00 
-1.4282411e-07 -8.1693967e-09 0.0000000e+00 
-1.4036264e-07 -3.3746530e-09 0.0000000e+00 
-1.3706313e-07 1.3709030e-08 0.0000000e+00 
-1.3776378e-07 1.2369674e-09 0.0000000e+00 
-1.4243182e-07 -1.3109851e-08 0.0000000e+00 
-1.3478224e-07 7.3587403e-09 0.0000000e+00 
-1.3744298e-07 -7.8368050e-09 0.0000000e+00 
-1.3505935e-07 -3.0514340e-09 0.0000000e+00 
-1.3170906e-07 1.3611992e-08 0.0000000e+00 
-1.3245283e-07 1.5347489e-09 0.0000000e+00 
-1.3704492e-07 -1.3041651e-08 0.0000000e+00 
-1.2960710e-07 6.8709545e-09 0.0000000e+00 
-1.3221545e-07 -7.5245534e-09 0.0000000e+00 
-1.2976950e-07 -2.8051037e-09 0.0000000e+00 
-1.3169135e-07 -1.2964486e-08 0.0000000e+00 
-1.2638829e-07 1.3508674e-08 0.0000000e+00 
-1.2737489e-07 8.7600438e-10 0.0000000e+00 
-1.2777015e-07 -7.6731075e-09 0.0000000e+00 
-1.2456405e-07 5.8099956e-09 0.0000000e+00 
-1.2453125e-07 -3.5401839e-09 0.0000000e+00 
-1.2160454e-07 9.4317754e-09 0.0000000e+00 
-1.2637371e-07 -1.2875537e-08 0.0000000e+00 
-1.2215546e-07 1.1226251e-09 0.0000000e+00 
-1.2111533e-07 1.3391404e-08 0.0000000e+00 
-1.2256415e-07 -8.1461984e-09 0.0000000e+00 
-1.1985189e-07 4.5328234e-09 0.0000000e+00 
-1.2023639e-07 -3.6792556e-09 0.0000000e+00 
-1.1755891e-07 9.0344789e-09 0.0000000e+00 
-1.2109726e-07 -1.2774447e-08 0.0000000e+00 
-1.1704670e-07 1.7844903e-10 0.0000000e+00 
-1.1588385e-07 1.3261842e-08 0.0000000e+00 
-1.1775061e-07 -8.1720701e-09 0.0000000e+00 
-1.1467577e-07 4.5509942e-09 0.0000000e+00 
-1.1522487e-07 -3.6585321e-09 0.0000000e+00 
-1.1231940e-07 9.0666257e-09 0.0000000e+00 
-1.1586667e-07 -1.2663374e-08 0.0000000e+00 
-1.1211973e-07 1.0306910e-09 0.0000000e+00 
-1.1070343e-07 1.3121522e-08 0.0000000e+00 
-1.1263828e-07 -8.0853573e-09 0.0000000e+00 
-1.0954371e-07 4.8201438e-09 0.0000000e+00 
-1.1005734e-07 -3.6520194e-09 0.0000000e+00 
-1.0729309e-07 8.8007326e-09 0.0000000e+00 
-1.1068580e-07 -1.2542319e-08 0.0000000e+00 
-1.0702020e-07 4.1172266e-10 0.0000000e+00 
-1.0557656e-07 1.2971821e-08 0.0000000e+00 
-1.0753757e-07 -7.8395477e-09 0.0000000e+00 
-1.0447377e-07 4.5671116e-09 0.0000000e+00 
-1.0517287e-07 -4.2606296e-09 0.0000000e+00 
-1.0225619e-07 8.8214005e-09 0.0000000e+00 
-1.0556023e-07 -1.2413325e-08 0.0000000e+00 
-1.0273355e-07 8.4519934e-12 0.0000000e+00 
-1.0050833e-07 1.2810813e-08 0.0000000e+00 
-1.0257397e-07 -8.5383904e-09 0.0000000e+00 
-1.0031549e-07 4.3650785e-09 0.0000000e+00 
-1.0011723e-07 -4.1610089e-09 0.0000000e+00 
-9.7671638e-08 8.5144585e-09 0.0000000e+00 
-1.0048988e-07 -1.2268045e-08 0.0000000e+00 
-9.7723728e-08 1.9281497e-10 0.0000000e+00 
-9.5502948e-08 1.2640715e-08 0.0000000e+00 
-9.7598814e-08 -8.1721439e-09 0.0000000e+00 
-9.5420134e-08 4.0583297e-09 0.0000000e+00 
-9.5156715e-08 -3.8534167e-09 0.0000000e+00 
-9.2711517e-08 8.1117149e-09 0.0000000e+00 
-9.5484658e-08 -1.2116407e-08 0.0000000e+00 
-9.2928325e-08 -2.2256647e-10 0.0000000e+00 
-9.2683635e-08 -7.8257889e-09 0.0000000e+00 
-9.0563951e-08 1.2462973e-08 0.0000000e+00 
-9.0475837e-08 3.9978092e-09 0.0000000e+00 
-9.0474089e-08 -4.4456407e-09 0.0000000e+00 
-8.8063771e-08 8.1610274e-09 0.0000000e+00 
-9.0545726e-08 -1.1958143e-08 0.0000000e+00 
-8.8017977e-08 -2.2412648e-10 0.0000000e+00 
-8.8059423e-08 -8.6118170e-09 0.0000000e+00 
-8.5694431e-08 1.2272791e-08 0.0000000e+00 
-8.5601997e-08 3.9332813e-09 0.0000000e+00 
-8.5600213e-08 -4.3853632e-09 0.0000000e+00 
-8.3228805e-08 8.0308569e-09 0.0000000e+00 
-8.5674181e-08 -1.1781342e-08 0.0000000e+00 
-8.3180545e-08 -2.2495805e-10 0.0000000e+00 
-8.3225572e-08 -8.4868734e-09 0.0000000e+00 
-8.0900222e-08 1.2073101e-08 0.0000000e+00 
-8.0803346e-08 3.8655239e-09 0.0000000e+00 
-8.1719215e-08 -3.9731995e-09 0.0000000e+00 
-7.8470450e-08 7.8940294e-09 0.0000000e+00 
-8.0881968e-08 -1.1594567e-08 0.0000000e+00 
-7.8420577e-08 -2.2638195e-10 0.0000000e+00 
-7.8724241e-08 -7.4995681e-09 0.0000000e+00 
-7.6183838e-08 1.1864043e-08 0.0000000e+00 
-7.6083047e-08 3.7945349e-09 0.0000000e+00 
-7.5834286e-08 -3.6401795e-09 0.0000000e+00 
-7.3791298e-08 7.7508275e-09 0.0000000e+00 
-7.6167574e-08 -1.1407216e-08 0.0000000e+00 
-7.3739209e-08 -2.3049784e-10 0.0000000e+00 
-7.3521278e-08 -7.3553683e-09 0.0000000e+00 
-7.1548591e-08 1.1645188e-08 0.0000000e+00 
-7.1442628e-08 3.7203927e-09 0.0000000e+00 
-7.1443779e-08 -4.1788581e-09 0.0000000e+00 
-6.9194876e-08 7.6007298e-09 0.0000000e+00 
-7.1533890e-08 -1.1208429e-08 0.0000000e+00 
-6.9141969e-08 -2.2974991e-10 0.0000000e+00 
-6.9198272e-08 -8.0569933e-09 0.0000000e+00 
-6.6998140e-08 1.1416009e-08 0.0000000e+00 
-6.6888070e-08 3.6437504e-09 0.0000000e+00 
-6.6892149e-08 -4.1015960e-09 0.0000000e+00 
-6.6989685e-08 -1.0990679e-08 0.0000000e+00 
-6.4685352e-08 7.4438788e-09 0.0000000e+00 
-6.4631621e-08 -2.2827053e-10 0.0000000e+00 
-6.4696337e-08 -7.9003382e-09 0.0000000e+00 
-6.2536387e-08 1.1176137e-08 0.0000000e+00 
-6.2421663e-08 3.5642036e-09 0.0000000e+00 
-6.2428803e-08 -4.0185775e-09 0.0000000e+00 
-6.2537339e-08 -1.0766335e-08 0.0000000e+00 
-6.0265812e-08 7.2795459e-09 0.0000000e+00 
-6.0210851e-08 -2.2559672e-10 0.0000000e+00 
-6.0282041e-08 -7.7328117e-09 0.0000000e+00 
-5.8166865e-08 1.0924317e-08 0.0000000e+00 
-5.8046634e-08 3.4813161e-09 0.0000000e+00 
-5.8056223e-08 -3.9298622e-09 0.0000000e+00 
-5.8170407e-08 -1.0529594e-08 0.0000000e+00 
-5.5939960e-08 7.1066526e-09 0.0000000e+00 
-5.5883145e-08 -2.2170386e-10 0.0000000e+00 
-5.5958946e-08 -7.5571318e-09 0.0000000e+00 
-5.3894425e-08 1.0658599e-08 0.0000000e+00 
-5.3767653e-08 3.3946077e-09 0.0000000e+00 
-5.3778265e-08 -3.8351713e-09 0.0000000e+00 
-5.2059914e-08 7.0162787e-09 0.0000000e+00 
-5.3901658e-08 -1.0273957e-08 0.0000000e+00 
-5.1654268e-08 -2.1684618e-10 0.0000000e+00 
-5.1954871e-08 -6.6175478e-09 0.0000000e+00 
-4.9972925e-08 3.4694765e-09 0.0000000e+00 
-4.9724225e-08 1.0375232e-08 0.0000000e+00 
-4.9810183e-08 -3.2089231e-09 0.0000000e+00 
-4.7952831e-08 6.8672854e-09 0.0000000e+00 
-4.9733032e-08 -1.0014154e-08 0.0000000e+00 
-4.7676867e-08 1.1704553e-10 0.0000000e+00 
-4.7880107e-08 -6.6373924e-09 0.0000000e+00 
-4.5667182e-08 1.0070344e-08 0.0000000e+00 
-4.5780915e-08 -3.3251537e-09 0.0000000e+00 
-4.4778240e-08 3.1058440e-09 0.0000000e+00 
-4.4002292e-08 6.9264803e-09 0.0000000e+00 
-4.5666699e-08 -9.7326565e-09 0.0000000e+00 
-4.4275883e-08 -2.8752001e-10 0.0000000e+00 
-4.3915087e-08 -6.6570713e-09 0.0000000e+00 
-4.1734673e-08 9.7320987e-09 0.0000000e+00 
-4.1833804e-08 -3.2621041e-09 0.0000000e+00 
-4.0908478e-08 3.9336745e-10 0.0000000e+00 
-4.1718064e-08 -9.4253672e-09 0.0000000e+00 
-4.0025562e-08 4.8612585e-09 0.0000000e+00 
-4.0097284e-08 -5.8605085e-09 0.0000000e+00 
-3.7911839e-08 9.4112895e-09 0.0000000e+00 
-3.8163456e-08 -2.6968261e-09 0.0000000e+00 
-3.6649428e-08 6.7477152e-10 0.0000000e+00 
-3.7897841e-08 -9.1109644e-09 0.0000000e+00 
-3.6364224e-08 -5.7749454e-09 0.0000000e+00 
-3.5231448e-08 3.9685575e-09 0.0000000e+00 
-3.4255013e-08 9.0887120e-09 0.0000000e+00 
-3.4467650e-08 -2.5850047e-09 0.0000000e+00 
-3.4215088e-08 -8.7712824e-09 0.0000000e+00 
-3.2650725e-08 4.8880694e-10 0.0000000e+00 
-3.2344758e-08 5.8321823e-09 0.0000000e+00 
-3.2734345e-08 -5.5685940e-09 0.0000000e+00 
-3.0702278e-08 8.6989456e-09 0.0000000e+00 
-3.0905394e-08 -2.4937425e-09 0.0000000e+00 
-3.0513647e-08 2.7531932e-09 0.0000000e+00 
-2.9571902e-08 2.4650632e-10 0.0000000e+00 
-3.0678734e-08 -8.4122584e-09 0.0000000e+00 
-2.8868561e-08 5.5746456e-09 0.0000000e+00 
-2.9248866e-08 -5.3387135e-09 0.0000000e+00 
-2.7310335e-08 8.2955474e-09 0.0000000e+00 
-2.7123921e-08 2.6236919e-09 0.0000000e+00 
-2.7058226e-08 -1.4960825e-09 0.0000000e+00 
-2.7287875e-08 -8.0349958e-09 0.0000000e+00 
-2.5550241e-08 5.3021831e-09 0.0000000e+00 
-2.5507056e-08 -4.9810671e-09 0.0000000e+00 
-2.4074680e-08 7.8769578e-09 0.0000000e+00 
-2.3943825e-08 1.5737552e-09 0.0000000e+00 
-2.3705045e-08 -2.2779862e-09 0.0000000e+00 
-2.4066601e-08 -7.6395086e-09 0.0000000e+00 
-2.2399163e-08 5.0344084e-09 0.0000000e+00 
-2.2393877e-08 -4.8023172e-09 0.0000000e+00 
-2.1675097e-08 -2.3777560e-10 0.0000000e+00 
-2.1020371e-08 7.4397679e-09 0.0000000e+00 
-2.0808358e-08 2.3428908e-09 0.0000000e+00 
-2.0816167e-08 -2.6888891e-09 0.0000000e+00 
-2.1007439e-08 -7.2195325e-09 0.0000000e+00 
-1.9418627e-08 4.7328954e-09 0.0000000e+00 
-1.9315001e-08 -1.6576428e-10 0.0000000e+00 
-1.9408477e-08 -4.5150248e-09 0.0000000e+00 
-1.8134257e-08 6.9791222e-09 0.0000000e+00 
-1.7915163e-08 2.1994040e-09 0.0000000e+00 
-1.7920305e-08 -2.5277413e-09 0.0000000e+00 
-1.8118614e-08 -6.7764101e-09 0.0000000e+00 
-1.6619392e-08 4.4217132e-09 0.0000000e+00 
-1.6512001e-08 -1.5879106e-10 0.0000000e+00 
-1.6607084e-08 -4.2149044e-09 0.0000000e+00 
-1.5433974e-08 6.4980132e-09 0.0000000e+00 
-1.5205339e-08 2.0471234e-09 0.0000000e+00 
-1.5212375e-08 -2.3607865e-09 0.0000000e+00 
-1.5417122e-08 -6.3195849e-09 0.0000000e+00 
-1.4008702e-08 4.0981756e-09 0.0000000e+00 
-1.3895143e-08 -1.4946779e-10 0.0000000e+00 
-1.4020001e-08 -4.3935628e-09 0.0000000e+00 
-1.2926633e-08 5.9959140e-09 0.0000000e+00 
-1.2688557e-08 1.8869999e-09 0.0000000e+00 
-1.2695085e-08 -2.1772639e-09 0.0000000e+00 
-1.2904523e-08 -5.8251448e-09 0.0000000e+00 
-1.1595608e-08 3.7626471e-09 0.0000000e+00 
-1.1477131e-08 -1.3904884e-10 0.0000000e+00 
-1.1608901e-08 -4.0397898e-09 0.0000000e+00 
-1.0623905e-08 5.4713900e-09 0.0000000e+00 
-1.0373600e-08 1.7193413e-09 0.0000000e+00 
-1.0380720e-08 -1.9878212e-09 0.0000000e+00 
-1.0600705e-08 -5.3196061e-09 0.0000000e+00 
-9.5516279e-09 3.3112766e-09 0.0000000e+00 
-9.2658903e-09 -1.2780514e-10 0.0000000e+00 
-9.4025658e-09 -3.6681849e-09 0.0000000e+00 
-8.5271825e-09 4.9388422e-09 0.0000000e+00 
-8.2684757e-09 1.5494320e-09 0.0000000e+00 
-8.2763592e-09 -1.7910157e-09 0.0000000e+00 
-8.5040632e-09 -4.7933515e-09 0.0000000e+00 
-7.5696658e-09 3.1027592e-09 0.0000000e+00 
-7.2666073e-09 -1.1647035e-10 0.0000000e+00 
-7.4098216e-09 -3.2843432e-09 0.0000000e+00 
-6.6152701e-09 1.4406557e-09 0.0000000e+00 
-6.6473813e-09 4.3750976e-09 0.0000000e+00 
-6.3897456e-09 -1.5840986e-09 0.0000000e+00 
-6.6306045e-09 -4.2374566e-09 0.0000000e+00 
-5.7867542e-09 2.7047311e-09 0.0000000e+00 
-5.7328324e-09 -1.2004047e-11 0.0000000e+00 
-5.7052025e-09 -2.6012852e-09 0.0000000e+00 
-4.9381188e-09 1.2806350e-09 0.0000000e+00 
-4.9955498e-09 3.7991685e-09 0.0000000e+00 
-4.7984194e-09 -1.1915795e-09 0.0000000e+00 
-4.4679496e-09 2.5157918e-09 0.0000000e+00 
-4.9744293e-09 -3.6848207e-09 0.0000000e+00 
-4.1643746e-09 1.6023062e-10 0.0000000e+00 
-4.1705803e-09 -2.3016427e-09 0.0000000e+00 
-3.5309071e-09 1.2268856e-09 0.0000000e+00 
-3.5697099e-09 3.2014882e-09 0.0000000e+00 
-3.3586862e-09 -1.0143194e-09 0.0000000e+00 
-3.5550023e-09 -3.0939438e-09 0.0000000e+00 
-3.0295615e-09 2.1532567e-09 0.0000000e+00 
-2.8258649e-09 1.2924677e-10 0.0000000e+00 
-2.8437352e-09 -1.7910653e-09 0.0000000e+00 
-2.3041271e-09 1.0186857e-09 0.0000000e+00 
-2.3867561e-09 2.5736575e-09 0.0000000e+00 
-2.1800988e-09 -7.4023582e-10 0.0000000e+00 
-2.3741999e-09 -2.4980242e-09 0.0000000e+00 
-1.9243382e-09 1.7220866e-09 0.0000000e+00 
-1.7174209e-09 1.1304320e-10 0.0000000e+00 
-1.7704352e-09 -1.4210327e-09 0.0000000e+00 
-1.3208952e-09 7.8526902e-10 0.0000000e+00 
-1.4595340e-09 1.9312330e-09 0.0000000e+00 
-1.2201936e-09 -5.4936483e-10 0.0000000e+00 
-1.4407762e-09 -1.8748609e-09 0.0000000e+00 
-9.9687625e-10 1.2171897e-09 0.0000000e+00 
-8.0846196e-10 9.8419987e-11 0.0000000e+00 
-9.3806363e-10 -1.0191974e-09 0.0000000e+00 
-5.4217347e-10 5.0742877e-10 0.0000000e+00 
-7.8988133e-10 1.2568708e-09 0.0000000e+00 
-5.1705334e-10 -3.6133024e-10 0.0000000e+00 
-4.8857379e-10 7.6265017e-10 0.0000000e+00 
-7.6701473e-10 -1.2268485e-09 0.0000000e+00 
-2.4660179e-10 6.9647017e-11 0.0000000e+00 
-3.0120170e-10 -5.3016291e-10 0.0000000e+00 
-1.6924517e-10 3.1708453e-10 0.0000000e+00 
-3.1658412e-10 5.7993904e-10 0.0000000e+00 
-5.7753413e-11 -1.0043076e-10 0.0000000e+00 
-3.2179526e-10 -5.6517230e-10 0.0000000e+00 
0.0000000e+00 0.0000000e+00 0.0000000e+00 
0.0000000e+00 0.0000000e+00 0.0000000e+00 
0.0000000e+00 0.0000000e+00 0.0000000e+00 
0.0000000e+00 0.0000000e+00 0.0000000e+00 
0.0000000e+00 0.0000000e+00 0.0000000e+00 
0.0000000e+00 0.0000000e+00 0.0000000e+00 
REACTION 3 340  float
1.6420861e-06 7.2730796e-07 0.0000000e+00 
-2.1059536e-06 -3.2396465e-06 0.0000000e+00 
-2.1015005e-06 -3.9751998e-07 0.0000000e+00 
1.7701744e-06 -3.1788106e-06 0.0000000e+00 
-5.5035406e-07 1.2109562e-06 0.0000000e+00 
-1.2298332e-06 -7.8490700e-07 0.0000000e+00 
-2.9595062e-06 2.2134311e-06 0.0000000e+00 
3.2132189e-06 5.7155626e-07 0.0000000e+00 
3.7072136e-06 -1.3780234e-06 0.0000000e+00 
-2.9183407e-06 1.1973989e-07 0.0000000e+00 
1.7894142e-06 6.4275689e-08 0.0000000e+00 
-5.8812299e-07 -2.0118227e-06 0.0000000e+00 
-1.1246198e-06 -2.1485153e-06 0.0000000e+00 
-2.6722839e-06 5.0324115e-07 0.0000000e+00 
-2.1099395e-07 2.8189963e-06 0.0000000e+00 
1.9065081e-07 4.0623308e-06 0.0000000e+00 
3.3350482e-06 8.3417433e-07 0.0000000e+00 
-2.5246711e-06 -1.1133180e-06 0.0000000e+00 
-2.6516482e-06 -2.8607349e-07 0.0000000e+00 
3.7937637e-06 -2.6167636e-06 0.0000000e+00 
1.9991523e-06 -1.5571008e-07 0.0000000e+00 
-3.7516531e-06 -5.5314086e-07 0.0000000e+00 
2.2312393e-06 -7.1123336e-06 0.0000000e+00 
2.5954066e-06 -2.4868418e-06 0.0000000e+00 
2.3606899e-06 -2.3606899e-06 0.0000000e+00 
-4.0240593e-06 1.2961636e-06 0.0000000e+00 
-3.7737652e-07 3.8566063e-06 0.0000000e+00 
-1.9280947e-06 -2.9261344e-07 0.0000000e+00 
-1.1318970e-06 -2.8854754e-07 0.0000000e+00 
8.5216124e-07 5.4347902e-07 0.0000000e+00 
1.9751060e-06 3.3259687e-06 0.0000000e+00 
-2.5079302e-07 -1.1937771e-06 0.0000000e+00 
-7.4754172e-07 -9.8118289e-07 0.0000000e+00 
-1.3923727e-06 3.1009367e-06 0.0000000e+00 
2.8856510e-07 1.0896540e-06 0.0000000e+00 
-1.6962045e-06 2.7795097e-06 0.0000000e+00 
1.2933109e-06 -4.1406602e-07 0.0000000e+00 
8.0155621e-07 4.0466030e-06 0.0000000e+00 
1.5645553e-06 -7.7354127e-07 0.0000000e+00 
-1.0082371e-06 -9.6868121e-07 0.0000000e+00 
8.1781764e-07 -1.8771140e-06 0.0000000e+00 
-1.2983444e-06 -1.9865979e-06 0.0000000e+00 
1.0409574e-06 -3.7261520e-07 0.0000000e+00 
-1.7584748e-06 -1.0505142e-06 0.0000000e+00 
1.5244699e-06 -2.2238598e-06 0.0000000e+00 
8.4892761e-08 -3.8367039e-06 0.0000000e+00 
3.7315834e-07 5.3422616e-07 0.0000000e+00 
-2.9610821e-06 -6.5876850e-07 0.0000000e+00 
3.8030496e-06 2.6550518e-07 0.0000000e+00 
-1.1691785e-06 -6.4644604e-07 0.0000000e+00 
3.8761282e-06 -1.2692185e-06 0.0000000e+00 
-1.1002487e-06 3.3216509e-06 0.0000000e+00 
-1.1740910e-06 -1.4826066e-06 0.0000000e+00 
-9.6658732e-07 -6.0749850e-11 0.0000000e+00 
-2.3181865e-07 1.9100233e-07 0.0000000e+00 
-3.7375610e-06 -1.1071286e-06 0.0000000e+00 
1.8240357e-06 -5.1944772e-07 0.0000000e+00 
1.7716389e-06 1.5167094e-06 0.0000000e+00 
1.8954109e-06 -6.3518974e-07 0.0000000e+00 
5.1080656e-07 1.2272956e-06 0.0000000e+00 
-4.0747830e-07 2.1900555e-06 0.0000000e+00 
-1.9793745e-06 2.5383731e-06 0.0000000e+00 
1.3142246e-06 1.4009476e-06 0.0000000e+00 
-4.7680945e-07 -2.6514508e-07 0.0000000e+00 
-4.5059227e-07 1.6087312e-06 0.0000000e+00 
1.2946837e-06 -8.8551690e-07 0.0000000e+00 
1.0920107e-06 -2.4155765e-06 0.0000000e+00 
-1.0092558e-06 -3.9722210e-07 0.0000000e+00 
-6.7951966e-08 -2.0138712e-06 0.0000000e+00 
-3.3846061e-07 -5.9892693e-07 0.0000000e+00 
-2.6126866e-06 -2.1108615e-06 0.0000000e+00 
-2.7893709e-08 -8.4755067e-07 0.0000000e+00 
1.7572321e-06 2.8935929e-06 0.0000000e+00 
-2.2364006e-06 -8.6066984e-07 0.0000000e+00 
3.0171971e-06 3.0244901e-06 0.0000000e+00 
-2.4562119e-08 -4.0737430e-07 0.0000000e+00 
-2.3003706e-07 4.7194344e-06 0.0000000e+00 
-1.7879100e-06 1.1922061e-06 0.0000000e+00 
-2.4931308e-07 -5.7907749e-07 0.0000000e+00 
1.8188076e-06 3.5917083e-07 0.0000000e+00 
-1.8593313e-06 -1.0302386e-06 0.0000000e+00 
2.9622101e-06 -2.3529296e-06 0.0000000e+00 
7.5374373e-09 -5.0249605e-07 0.0000000e+00 
-1.1333192e-06 -4.0054101e-06 0.0000000e+00 
-5.4452016e-07 -1.0646604e-06 0.0000000e+00 
-8.2178281e-07 4.3416699e-06 0.0000000e+00 
1.2642034e-06 6.5910982e-08 0.0000000e+00 
3.2760443e-06 1.7331668e-06 0.0000000e+00 
-8.0796309e-07 -9.1963301e-08 0.0000000e+00 
-9.5546248e-08 1.4945663e-06 0.0000000e+00 
-2.8401168e-06 6.2909288e-07 0.0000000e+00 
-2.4467403e-07 -1.9301437e-07 0.0000000e+00 
4.4962547e-07 -4.3127402e-06 0.0000000e+00 
-2.6626199e-07 7.0310864e-07 0.0000000e+00 
3.2375322e-06 -1.2966188e-06 0.0000000e+00 
-2.5486963e-06 -1.4275902e-06 0.0000000e+00 
-9.8599696e-07 -1.5160208e-06 0.0000000e+00 
-1.7152591e-07 1.6413748e-06 0.0000000e+00 
2.1772203e-06 2.2596898e-06 0.0000000e+00 
1.5370545e-06 4.0263708e-06 0.0000000e+00 
7.8963501e-07 -2.3447434e-07 0.0000000e+00 
1.3046935e-06 1.0556931e-06 0.0000000e+00 
-1.3215907e-06 1.4480115e-06 0.0000000e+00 
-2.7126221e-06 7.7402194e-07 0.0000000e+00 
-6.2993479e-07 -5.4016373e-06 0.0000000e+00 
1.3572252e-06 -8.0121612e-07 0.0000000e+00 
-3.3891197e-06 1.6797167e-06 0.0000000e+00 
9.0708134e-08 -1.2864796e-06 0.0000000e+00 