# vtk DataFile Version 4.0
vtk output
ASCII
DATASET UNSTRUCTURED_GRID
POINTS 340 float
1.0000000e+00 1.0000000e+01 0.0000000e+00 
1.0000000e+00 9.8000002e+00 0.0000000e+00 
8.0000001e-01 1.0000000e+01 0.0000000e+00 
7.2964472e-01 9.8093147e+00 0.0000000e+00 
8.4182751e-01 9.6382694e+00 0.0000000e+00 
6.0000002e-01 1.0000000e+01 0.0000000e+00 
1.0000000e+00 9.6000004e+00 0.0000000e+00 
5.0000000e-01 9.8267946e+00 0.0000000e+00 
6.3604087e-01 9.5908260e+00 0.0000000e+00 
8.4263843e-01 9.4342804e+00 0.0000000e+00 
4.0000001e-01 1.0000000e+01 0.0000000e+00 
1.0000000e+00 9.3999996e+00 0.0000000e+00 
4.0534732e-01 9.6340141e+00 0.0000000e+00 
2.7881753e-01 9.8140564e+00 0.0000000e+00 
6.7177695e-01 9.3303623e+00 0.0000000e+00 
4.9604306e-01 9.4256926e+00 0.0000000e+00 
8.4713864e-01 9.2343493e+00 0.0000000e+00 
2.0000000e-01 1.0000000e+01 0.0000000e+00 
1.0000000e+00 9.1999998e+00 0.0000000e+00 
3.0000001e-01 9.4803848e+00 0.0000000e+00 
1.6755788e-01 9.6235323e+00 0.0000000e+00 
6.7617422e-01 9.1307087e+00 0.0000000e+00 
4.8477495e-01 9.2195473e+00 0.0000000e+00 
8.5255039e-01 9.0345669e+00 0.0000000e+00 
0.0000000e+00 1.0000000e+01 0.0000000e+00 
1.0000000e+00 9.0000000e+00 0.0000000e+00 
0.0000000e+00 9.8000002e+00 0.0000000e+00 
2.2804837e-01 9.2825413e+00 0.0000000e+00 
0.0000000e+00 9.6000004e+00 0.0000000e+00 
5.0581944e-01 9.0259790e+00 0.0000000e+00 
3.3078760e-01 9.1219988e+00 0.0000000e+00 
6.8160146e-01 8.9308100e+00 0.0000000e+00 
0.0000000e+00 9.3999996e+00 0.0000000e+00 
8.5683817e-01 8.8346405e+00 0.0000000e+00 
1.0000000e+00 8.8000002e+00 0.0000000e+00 
1.7320508e-01 9.1000004e+00 0.0000000e+00 
3.3639798e-01 8.9224386e+00 0.0000000e+00 
5.1166874e-01 8.8261728e+00 0.0000000e+00 
0.0000000e+00 9.1999998e+00 0.0000000e+00 
6.8573916e-01 8.7312880e+00 0.0000000e+00 
1.7320508e-01 8.8999996e+00 0.0000000e+00 
1.0000000e+00 8.6000004e+00 0.0000000e+00 
0.0000000e+00 9.0000000e+00 0.0000000e+00 
3.4077987e-01 8.7225189e+00 0.0000000e+00 
5.1553297e-01 8.6263428e+00 0.0000000e+00 
7.3636049e-01 8.5193882e+00 0.0000000e+00 
0.0000000e+00 8.8000002e+00 0.0000000e+00 
1.0000000e+00 8.3999996e+00 0.0000000e+00 
1.7061394e-01 8.6176825e+00 0.0000000e+00 
3.4670532e-01 8.5231361e+00 0.0000000e+00 
5.2180642e-01 8.4266043e+00 0.0000000e+00 
7.4737626e-01 8.3175163e+00 0.0000000e+00 
0.0000000e+00 8.6000004e+00 0.0000000e+00 
1.7467257e-01 8.4178057e+00 0.0000000e+00 
3.5083947e-01 8.3232317e+00 0.0000000e+00 
1.0000000e+00 8.1999998e+00 0.0000000e+00 
5.2511263e-01 8.2268429e+00 0.0000000e+00 
0.0000000e+00 8.3999996e+00 0.0000000e+00 
7.5983411e-01 8.1149063e+00 0.0000000e+00 
1.8103610e-01 8.2179594e+00 0.0000000e+00 
3.5745192e-01 8.1241884e+00 0.0000000e+00 
1.0000000e+00 8.0000000e+00 0.0000000e+00 
5.3222626e-01 8.0272846e+00 0.0000000e+00 
0.0000000e+00 8.1999998e+00 0.0000000e+00 
7.5571120e-01 7.9173551e+00 0.0000000e+00 
1.8344399e-01 8.0151854e+00 0.0000000e+00 
3.6146736e-01 7.9243879e+00 0.0000000e+00 
1.0000000e+00 7.8000002e+00 0.0000000e+00 
5.3374660e-01 7.8279252e+00 0.0000000e+00 
0.0000000e+00 8.0000000e+00 0.0000000e+00 
7.6374203e-01 7.7163153e+00 0.0000000e+00 
1.9437179e-01 7.8156433e+00 0.0000000e+00 
3.7308612e-01 7.7272835e+00 0.0000000e+00 
1.0000000e+00 7.5999999e+00 0.0000000e+00 
5.4554766e-01 7.6299233e+00 0.0000000e+00 
0.0000000e+00 7.8000002e+00 0.0000000e+00 
7.4744660e-01 7.5226874e+00 0.0000000e+00 
2.0444529e-01 7.6206732e+00 0.0000000e+00 
3.8187346e-01 7.5294333e+00 0.0000000e+00 
0.0000000e+00 7.5999999e+00 0.0000000e+00 
1.0000000e+00 7.4000001e+00 0.0000000e+00 
5.2131432e-01 7.4393973e+00 0.0000000e+00 
1.9729473e-01 7.4537926e+00 0.0000000e+00 
7.0935732e-01 7.3327885e+00 0.0000000e+00 
3.5328710e-01 7.3320160e+00 0.0000000e+00 
8.4863865e-01 7.2198439e+00 0.0000000e+00 
0.0000000e+00 7.4000001e+00 0.0000000e+00 
5.3123343e-01 7.2420211e+00 0.0000000e+00 
1.0000000e+00 7.1999998e+00 0.0000000e+00 
1.7718045e-01 7.2569203e+00 0.0000000e+00 
6.6225648e-01 7.1541371e+00 0.0000000e+00 
3.4724638e-01 7.1689978e+00 0.0000000e+00 
8.3611876e-01 7.0656843e+00 0.0000000e+00 
0.0000000e+00 7.1999998e+00 0.0000000e+00 
4.9535713e-01 7.0473509e+00 0.0000000e+00 
1.0000000e+00 7.0000000e+00 0.0000000e+00 
1.7387313e-01 7.0734706e+00 0.0000000e+00 
6.6474640e-01 6.9560146e+00 0.0000000e+00 
3.4690949e-01 6.9773350e+00 0.0000000e+00 
8.4107113e-01 6.8641090e+00 0.0000000e+00 
0.0000000e+00 7.0000000e+00 0.0000000e+00 
5.2873749e-01 6.8578229e+00 0.0000000e+00 
1.0000000e+00 6.8000002e+00 0.0000000e+00 
1.7445621e-01 6.8769779e+00 0.0000000e+00 
6.7736709e-01 6.7575765e+00 0.0000000e+00 
3.4595537e-01 6.7778087e+00 0.0000000e+00 
8.3462298e-01 6.6689000e+00 0.0000000e+00 
0.0000000e+00 6.8000002e+00 0.0000000e+00 
5.0501287e-01 6.6597099e+00 0.0000000e+00 
1.0000000e+00 6.5999999e+00 0.0000000e+00 
1.8097465e-01 6.6789780e+00 0.0000000e+00 
6.6962856e-01 6.5595260e+00 0.0000000e+00 
3.2066780e-01 6.5871606e+00 0.0000000e+00 
8.3965176e-01 6.4710097e+00 0.0000000e+00 
0.0000000e+00 6.5999999e+00 0.0000000e+00 
4.8932999e-01 6.4914999e+00 0.0000000e+00 
1.0000000e+00 6.4000001e+00 0.0000000e+00 
1.4997987e-01 6.4839683e+00 0.0000000e+00 
6.6350561e-01 6.3954086e+00 0.0000000e+00 
3.2280096e-01 6.3877153e+00 0.0000000e+00 
8.3153027e-01 6.2889266e+00 0.0000000e+00 
0.0000000e+00 6.4000001e+00 0.0000000e+00 
4.9695736e-01 6.2927222e+00 0.0000000e+00 
1.0000000e+00 6.1999998e+00 0.0000000e+00 
1.6071729e-01 6.2864423e+00 0.0000000e+00 
6.5358984e-01 6.1999998e+00 0.0000000e+00 
3.3329538e-01 6.1896143e+00 0.0000000e+00 
8.1998920e-01 6.0895286e+00 0.0000000e+00 
0.0000000e+00 6.1999998e+00 0.0000000e+00 
4.8038477e-01 6.0999999e+00 0.0000000e+00 
1.7059118e-01 6.0888028e+00 0.0000000e+00 
1.0000000e+00 6.0000000e+00 0.0000000e+00 
6.5358984e-01 6.0000000e+00 0.0000000e+00 
3.0717969e-01 6.0000000e+00 0.0000000e+00 
8.2679492e-01 5.9000001e+00 0.0000000e+00 
0.0000000e+00 6.0000000e+00 0.0000000e+00 
4.8038477e-01 5.9000001e+00 0.0000000e+00 
1.3397460e-01 5.9000001e+00 0.0000000e+00 
1.0000000e+00 5.8000002e+00 0.0000000e+00 
6.5358984e-01 5.8000002e+00 0.0000000e+00 
3.0717969e-01 5.8000002e+00 0.0000000e+00 
8.2679492e-01 5.6999998e+00 0.0000000e+00 
0.0000000e+00 5.8000002e+00 0.0000000e+00 
4.8038477e-01 5.6999998e+00 0.0000000e+00 
1.3397460e-01 5.6999998e+00 0.0000000e+00 
1.0000000e+00 5.5999999e+00 0.0000000e+00 
6.5358984e-01 5.5999999e+00 0.0000000e+00 
3.2231969e-01 5.6385756e+00 0.0000000e+00 
8.2679492e-01 5.5000000e+00 0.0000000e+00 
0.0000000e+00 5.5999999e+00 0.0000000e+00 
4.8038477e-01 5.5000000e+00 0.0000000e+00 
1.7059118e-01 5.5111971e+00 0.0000000e+00 
1.0000000e+00 5.4000001e+00 0.0000000e+00 
6.5358984e-01 5.4000001e+00 0.0000000e+00 
3.3329538e-01 5.3896141e+00 0.0000000e+00 
8.2679492e-01 5.3000002e+00 0.0000000e+00 
0.0000000e+00 5.4000001e+00 0.0000000e+00 
4.8038477e-01 5.3000002e+00 0.0000000e+00 
1.7059118e-01 5.2888031e+00 0.0000000e+00 
1.0000000e+00 5.1999998e+00 0.0000000e+00 
6.5358984e-01 5.1999998e+00 0.0000000e+00 
3.0717969e-01 5.1999998e+00 0.0000000e+00 
8.2679492e-01 5.0999999e+00 0.0000000e+00 
0.0000000e+00 5.1999998e+00 0.0000000e+00 
4.8038477e-01 5.0999999e+00 0.0000000e+00 
1.3397460e-01 5.0999999e+00 0.0000000e+00 
1.0000000e+00 5.0000000e+00 0.0000000e+00 
6.5358984e-01 5.0000000e+00 0.0000000e+00 
3.0717969e-01 5.0000000e+00 0.0000000e+00 
0.0000000e+00 5.0000000e+00 0.0000000e+00 
8.2679492e-01 4.9000001e+00 0.0000000e+00 
4.8038477e-01 4.9000001e+00 0.0000000e+00 
1.3397460e-01 4.9000001e+00 0.0000000e+00 
1.0000000e+00 4.8000002e+00 0.0000000e+00 
6.5358984e-01 4.8000002e+00 0.0000000e+00 
3.0717969e-01 4.8000002e+00 0.0000000e+00 
0.0000000e+00 4.8000002e+00 0.0000000e+00 
8.2679492e-01 4.6999998e+00 0.0000000e+00 
4.8038477e-01 4.6999998e+00 0.0000000e+00 
1.3397460e-01 4.6999998e+00 0.0000000e+00 
1.0000000e+00 4.5999999e+00 0.0000000e+00 
6.5358984e-01 4.5999999e+00 0.0000000e+00 
3.0717969e-01 4.5999999e+00 0.0000000e+00 
0.0000000e+00 4.5999999e+00 0.0000000e+00 
8.2679492e-01 4.5000000e+00 0.0000000e+00 
4.8038477e-01 4.5000000e+00 0.0000000e+00 
1.3397460e-01 4.5000000e+00 0.0000000e+00 
1.0000000e+00 4.4000001e+00 0.0000000e+00 
6.5358984e-01 4.4000001e+00 0.0000000e+00 
3.0717969e-01 4.4000001e+00 0.0000000e+00 
8.3046603e-01 4.3165317e+00 0.0000000e+00 
0.0000000e+00 4.4000001e+00 0.0000000e+00 
4.8038477e-01 4.3000002e+00 0.0000000e+00 
1.7059118e-01 4.3111973e+00 0.0000000e+00 
6.6123927e-01 4.2184782e+00 0.0000000e+00 
1.0000000e+00 4.1999998e+00 0.0000000e+00 
3.3329538e-01 4.2103858e+00 0.0000000e+00 
8.3268768e-01 4.1176395e+00 0.0000000e+00 
0.0000000e+00 4.1999998e+00 0.0000000e+00 
4.9695736e-01 4.1072779e+00 0.0000000e+00 
1.6071729e-01 4.1135573e+00 0.0000000e+00 
1.0000000e+00 4.0000000e+00 0.0000000e+00 
3.2280096e-01 4.0122848e+00 0.0000000e+00 
6.4947557e-01 3.9632084e+00 0.0000000e+00 
8.4590596e-01 3.9203768e+00 0.0000000e+00 
0.0000000e+00 4.0000000e+00 0.0000000e+00 
4.7627035e-01 3.9377375e+00 0.0000000e+00 
1.4997987e-01 3.9160316e+00 0.0000000e+00 
1.0000000e+00 3.8000000e+00 0.0000000e+00 
3.2066780e-01 3.8128395e+00 0.0000000e+00 
5.1165128e-01 3.7661045e+00 0.0000000e+00 
0.0000000e+00 3.8000000e+00 0.0000000e+00 
7.4880123e-01 3.7184730e+00 0.0000000e+00 
1.8097465e-01 3.7210221e+00 0.0000000e+00 
1.0000000e+00 3.5999999e+00 0.0000000e+00 
3.4595537e-01 3.6221914e+00 0.0000000e+00 
5.2873749e-01 3.5421770e+00 0.0000000e+00 
0.0000000e+00 3.5999999e+00 0.0000000e+00 
1.7445621e-01 3.5230222e+00 0.0000000e+00 
7.1247655e-01 3.4632580e+00 0.0000000e+00 
1.0000000e+00 3.4000001e+00 0.0000000e+00 
3.4690949e-01 3.4226651e+00 0.0000000e+00 
0.0000000e+00 3.4000001e+00 0.0000000e+00 
5.1989859e-01 3.3223066e+00 0.0000000e+00 
8.2679492e-01 3.3000000e+00 0.0000000e+00 
1.7356591e-01 3.3231418e+00 0.0000000e+00 
1.0000000e+00 3.2000000e+00 0.0000000e+00 
3.4647828e-01 3.2226951e+00 0.0000000e+00 
6.5358984e-01 3.2000000e+00 0.0000000e+00 
5.0604391e-01 3.1465836e+00 0.0000000e+00 
[...]
POINT_DATA 340
FIELD FieldData 3
DISPLACEMENT 3 340  float
4.3762088e-07 -2.7967465e-08 0.0000000e+00 
4.2561680e-07 -2.8006891e-08 0.0000000e+00 
4.3763757e-07 -1.5965368e-08 0.0000000e+00 
4.2619860e-07 -1.1781754e-08 0.0000000e+00 
4.1591622e-07 -1.8543325e-08 0.0000000e+00 
4.3765638e-07 -3.9664965e-09 0.0000000e+00 
4.1360539e-07 -2.8044749e-08 0.0000000e+00 
4.2727331e-07 1.9938515e-09 0.0000000e+00 
4.1308434e-07 -6.2116947e-09 0.0000000e+00 
4.0365890e-07 -1.8624906e-08 0.0000000e+00 
4.3768208e-07 8.0302165e-09 0.0000000e+00 
4.0159028e-07 -2.8073856e-08 0.0000000e+00 
4.1570749e-07 7.6251370e-09 0.0000000e+00 
4.2654014e-07 1.5256729e-08 0.0000000e+00 
3.9742631e-07 -8.4000531e-09 0.0000000e+00 
4.0317551e-07 2.1433524e-09 0.0000000e+00 
3.9164433e-07 -1.8918390e-08 0.0000000e+00 
4.3771396e-07 2.0030184e-08 0.0000000e+00 
3.8957589e-07 -2.8090366e-08 0.0000000e+00 
4.0649164e-07 1.3901396e-08 0.0000000e+00 
4.1511601e-07 2.1885123e-08 0.0000000e+00 
3.8542677e-07 -8.6943217e-09 0.0000000e+00 
3.9078520e-07 2.7706435e-09 0.0000000e+00 
3.7964361e-07 -1.9255653e-08 0.0000000e+00 
4.3774756e-07 3.2033210e-08 0.0000000e+00 
3.7756828e-07 -2.8090328e-08 0.0000000e+00 
4.2574280e-07 3.1985770e-08 0.0000000e+00 
3.9461040e-07 1.8158909e-08 0.0000000e+00 
4.1373249e-07 3.1936139e-08 0.0000000e+00 
3.7914916e-07 1.4710864e-09 0.0000000e+00 
3.8494289e-07 1.1960947e-08 0.0000000e+00 
3.7342073e-07 -9.0423740e-09 0.0000000e+00 
4.0171523e-07 3.1879335e-08 0.0000000e+00 
3.6764817e-07 -1.9512408e-08 0.0000000e+00 
3.6558421e-07 -2.8066548e-08 0.0000000e+00 
3.8364678e-07 2.1384150e-08 0.0000000e+00 
3.7295183e-07 1.1565064e-08 0.0000000e+00 
3.6715497e-07 1.0812461e-09 0.0000000e+00 
3.8969722e-07 3.1813272e-08 0.0000000e+00 
3.6145755e-07 -9.3056993e-09 0.0000000e+00 
3.7163005e-07 2.1309393e-08 0.0000000e+00 
3.5361072e-07 -2.8027570e-08 0.0000000e+00 
3.7767182e-07 3.1731052e-08 0.0000000e+00 
3.6096117e-07 1.1240519e-08 0.0000000e+00 
3.5518337e-07 8.1183943e-10 0.0000000e+00 
3.4878238e-07 -1.2318499e-08 0.0000000e+00 
3.6566584e-07 3.1628982e-08 0.0000000e+00 
3.4168053e-07 -2.7974787e-08 0.0000000e+00 
3.5471155e-07 2.1340972e-08 0.0000000e+00 
3.4903039e-07 1.0822510e-08 0.0000000e+00 
3.4325029e-07 4.0507087e-10 0.0000000e+00 
3.3674735e-07 -1.2960189e-08 0.0000000e+00 
3.5369266e-07 3.1510023e-08 0.0000000e+00 
3.4277522e-07 2.0997060e-08 0.0000000e+00 
3.3710896e-07 1.0506992e-08 0.0000000e+00 
3.2978980e-07 -2.7900622e-08 0.0000000e+00 
3.3135825e-07 1.7650183e-10 0.0000000e+00 
3.4175855e-07 3.1371375e-08 0.0000000e+00 
3.2471499e-07 -1.3673920e-08 0.0000000e+00 
3.3088276e-07 2.0506222e-08 0.0000000e+00 
3.2528402e-07 1.0041876e-08 0.0000000e+00 
3.1794960e-07 -2.7804273e-08 0.0000000e+00 
3.1952675e-07 -2.7307312e-10 0.0000000e+00 
3.2986813e-07 3.1214128e-08 0.0000000e+00 
3.1303543e-07 -1.3398029e-08 0.0000000e+00 
3.1886822e-07 2.0238028e-08 0.0000000e+00 
3.1346741e-07 9.7265040e-09 0.0000000e+00 
3.0616732e-07 -2.7690101e-08 0.0000000e+00 
3.0776397e-07 -3.9149717e-10 0.0000000e+00 
3.1802875e-07 3.1037757e-08 0.0000000e+00 
3.0121217e-07 -1.3824621e-08 0.0000000e+00 
3.0710046e-07 1.9460435e-08 0.0000000e+00 
3.0186752e-07 8.9648786e-09 0.0000000e+00 
2.9445269e-07 -2.7553572e-08 0.0000000e+00 
2.9614424e-07 -1.1034226e-09 0.0000000e+00 
3.0624847e-07 3.0843811e-08 0.0000000e+00 
2.8988939e-07 -1.2822756e-08 0.0000000e+00 
2.9566303e-07 1.8729134e-08 0.0000000e+00 
2.9029110e-07 8.3710656e-09 0.0000000e+00 
2.9453480e-07 3.0631934e-08 0.0000000e+00 
2.8280465e-07 -2.7404486e-08 0.0000000e+00 
2.8503237e-07 2.8119945e-10 0.0000000e+00 
2.8593342e-07 1.9014211e-08 0.0000000e+00 
2.7885210e-07 -1.0563794e-08 0.0000000e+00 
2.7882444e-07 9.9282831e-09 0.0000000e+00 
2.7234830e-07 -1.8540794e-08 0.0000000e+00 
2.8289298e-07 3.0396485e-08 0.0000000e+00 
2.7359903e-07 -3.1875352e-10 0.0000000e+00 
2.7125222e-07 -2.7227491e-08 0.0000000e+00 
2.7453299e-07 2.0004970e-08 0.0000000e+00 
2.6853422e-07 -7.8238189e-09 0.0000000e+00 
2.6941504e-07 1.0189920e-08 0.0000000e+00 
2.6348269e-07 -1.7727551e-08 0.0000000e+00 
2.7133359e-07 3.0136757e-08 0.0000000e+00 
2.6240605e-07 1.6941331e-09 0.0000000e+00 
2.5978275e-07 -2.7025918e-08 0.0000000e+00 
2.6398308e-07 2.0020572e-08 0.0000000e+00 
2.5718464e-07 -7.9296978e-09 0.0000000e+00 
2.5842749e-07 1.0095019e-08 0.0000000e+00 
2.5198864e-07 -1.7874768e-08 0.0000000e+00 
2.5986591e-07 2.9857066e-08 0.0000000e+00 
2.5159437e-07 -2.3287439e-10 0.0000000e+00 
2.4841540e-07 -2.6802823e-08 0.0000000e+00 
2.5276950e-07 1.9787672e-08 0.0000000e+00 
2.4592038e-07 -8.5886107e-09 0.0000000e+00 
2.4708839e-07 1.0029383e-08 0.0000000e+00 
2.4095439e-07 -1.7366702e-08 0.0000000e+00 
2.4849768e-07 2.9557409e-08 0.0000000e+00 
2.4040111e-07 1.0674529e-09 0.0000000e+00 
2.3715515e-07 -2.6560969e-08 0.0000000e+00 
2.4157089e-07 1.9206277e-08 0.0000000e+00 
2.3478471e-07 -8.1005878e-09 0.0000000e+00 
2.3636298e-07 1.1319008e-08 0.0000000e+00 
2.2988411e-07 -1.7490285e-08 0.0000000e+00 
2.3724000e-07 2.9241873e-08 0.0000000e+00 
2.3098310e-07 1.9045203e-09 0.0000000e+00 
2.2601219e-07 -2.6296499e-08 0.0000000e+00 
2.3066593e-07 2.0703832e-08 0.0000000e+00 
2.2564295e-07 -7.7129290e-09 0.0000000e+00 
2.2524773e-07 1.1051644e-08 0.0000000e+00 
2.1979963e-07 -1.6887924e-08 0.0000000e+00 
2.2609279e-07 2.8893767e-08 0.0000000e+00 
2.1996220e-07 1.4402219e-09 0.0000000e+00 
2.1499494e-07 -2.6013858e-08 0.0000000e+00 
2.1972028e-07 1.9860463e-08 0.0000000e+00 
2.1487000e-07 -7.1057458e-09 0.0000000e+00 
2.1432849e-07 1.0326654e-08 0.0000000e+00 
2.0887731e-07 -1.6081737e-08 0.0000000e+00 
2.1507581e-07 2.8532940e-08 0.0000000e+00 
2.0940345e-07 2.2989610e-09 0.0000000e+00 
2.0889409e-07 1.9061186e-08 0.0000000e+00 
2.0411048e-07 -2.5715945e-08 0.0000000e+00 
2.0397493e-07 -7.0422228e-09 0.0000000e+00 
2.0401204e-07 1.1587994e-08 0.0000000e+00 
1.9862726e-07 -1.6269155e-08 0.0000000e+00 
2.0419139e-07 2.8158841e-08 0.0000000e+00 
1.9857626e-07 2.2446003e-09 0.0000000e+00 
1.9869975e-07 2.0763164e-08 0.0000000e+00 
1.9336500e-07 -2.5393218e-08 0.0000000e+00 
1.9322079e-07 -6.9706432e-09 0.0000000e+00 
1.9325772e-07 1.1409950e-08 0.0000000e+00 
1.8795089e-07 -1.6066384e-08 0.0000000e+00 
1.9344172e-07 2.7747591e-08 0.0000000e+00 
1.8789488e-07 2.1888611e-09 0.0000000e+00 
1.8802547e-07 2.0455687e-08 0.0000000e+00 
1.8277009e-07 -2.5051619e-08 0.0000000e+00 
1.8261703e-07 -6.8925372e-09 0.0000000e+00 
1.8468154e-07 1.0463092e-08 0.0000000e+00 
1.7742767e-07 -1.5850322e-08 0.0000000e+00 
1.8285077e-07 2.7316208e-08 0.0000000e+00 
1.7736848e-07 2.1344186e-09 0.0000000e+00 
1.7806835e-07 1.8242503e-08 0.0000000e+00 
1.7233056e-07 -2.4691545e-08 0.0000000e+00 
1.7216985e-07 -6.8079058e-09 0.0000000e+00 
1.7165765e-07 9.6704849e-09 0.0000000e+00 
1.6706241e-07 -1.5621559e-08 0.0000000e+00 
1.7241574e-07 2.6883406e-08 0.0000000e+00 
1.6699926e-07 2.0853999e-09 0.0000000e+00 
1.6654377e-07 1.7890091e-08 0.0000000e+00 
1.6205254e-07 -2.4312188e-08 0.0000000e+00 
1.6188186e-07 -6.7170172e-09 0.0000000e+00 
1.6192618e-07 1.0824823e-08 0.0000000e+00 
1.5686147e-07 -1.5379010e-08 0.0000000e+00 
1.6214315e-07 2.6427241e-08 0.0000000e+00 
1.5679787e-07 2.0262809e-09 0.0000000e+00 
1.5695454e-07 1.9422959e-08 0.0000000e+00 
1.5194264e-07 -2.3912257e-08 0.0000000e+00 
1.5176410e-07 -6.6213635e-09 0.0000000e+00 
1.5181716e-07 1.0611934e-08 0.0000000e+00 
1.5205454e-07 2.5933009e-08 0.0000000e+00 
1.4683233e-07 -1.5122685e-08 0.0000000e+00 
1.4676841e-07 1.9647002e-09 0.0000000e+00 
1.4694739e-07 1.9050223e-08 0.0000000e+00 
1.4200806e-07 -2.3490252e-08 0.0000000e+00 
1.4182008e-07 -6.5200516e-09 0.0000000e+00 
1.4188220e-07 1.0385404e-08 0.0000000e+00 
1.4214751e-07 2.5425672e-08 0.0000000e+00 
1.3698046e-07 -1.4850470e-08 0.0000000e+00 
1.3691489e-07 1.8996604e-09 0.0000000e+00 
1.3711048e-07 1.8653269e-08 0.0000000e+00 
1.3225562e-07 -2.3042281e-08 0.0000000e+00 
1.3205563e-07 -6.4117414e-09 0.0000000e+00 
1.3212424e-07 1.0145638e-08 0.0000000e+00 
1.3240276e-07 2.4891570e-08 0.0000000e+00 
1.2731330e-07 -1.4559176e-08 0.0000000e+00 
1.2724371e-07 1.8315561e-09 0.0000000e+00 
1.2745011e-07 1.8237918e-08 0.0000000e+00 
1.2269599e-07 -2.2562480e-08 0.0000000e+00 
1.2248053e-07 -6.2947256e-09 0.0000000e+00 
1.2255130e-07 9.8922754e-09 0.0000000e+00 
1.1862011e-07 -1.4443986e-08 0.0000000e+00 
1.2285032e-07 2.4315248e-08 0.0000000e+00 
1.1776763e-07 1.7613415e-09 0.0000000e+00 
1.1847533e-07 1.6110867e-08 0.0000000e+00 
1.1396630e-07 -6.5321353e-09 0.0000000e+00 
1.1334100e-07 -2.2041176e-08 0.0000000e+00 
1.1364491e-07 8.4474028e-09 0.0000000e+00 
1.0939552e-07 -1.4203932e-08 0.0000000e+00 
1.1349695e-07 2.3724922e-08 0.0000000e+00 
1.0882906e-07 9.5398911e-10 0.0000000e+00 
1.0932076e-07 1.6129000e-08 0.0000000e+00 
1.0421702e-07 -2.1468102e-08 0.0000000e+00 
1.0458061e-07 8.6650722e-09 0.0000000e+00 
1.0228251e-07 -5.8124034e-09 0.0000000e+00 
1.0049781e-07 -1.4428782e-08 0.0000000e+00 
1.0434538e-07 2.3083095e-08 0.0000000e+00 
1.0117142e-07 1.8140056e-09 0.0000000e+00 
1.0038902e-07 1.6146663e-08 0.0000000e+00 
9.5349542e-08 -2.0817071e-08 0.0000000e+00 
9.5679212e-08 8.4803613e-09 0.0000000e+00 
9.3568936e-08 2.3012903e-10 0.0000000e+00 
9.5436697e-08 2.2379163e-08 0.0000000e+00 
9.1540485e-08 -9.8615303e-09 0.0000000e+00 
9.1767966e-08 1.4322751e-08 0.0000000e+00 
8.6713257e-08 -2.0195682e-08 0.0000000e+00 
8.7383178e-08 7.1616277e-09 0.0000000e+00 
8.3936605e-08 -4.7531529e-10 0.0000000e+00 
8.6803979e-08 2.1652800e-08 0.0000000e+00 
8.3324508e-08 1.4098127e-08 0.0000000e+00 
8.0698257e-08 -7.9474720e-09 0.0000000e+00 
7.8430723e-08 -1.9563281e-08 0.0000000e+00 
7.9013780e-08 6.8618231e-09 0.0000000e+00 
7.8464851e-08 2.0865620e-08 0.0000000e+00 
7.4873611e-08 -1.2242987e-10 0.0000000e+00 
7.4132359e-08 -1.2234239e-08 0.0000000e+00 
7.5097361e-08 1.3597233e-08 0.0000000e+00 
7.0371854e-08 -1.8780591e-08 0.0000000e+00 
7.0931108e-08 6.6068280e-09 0.0000000e+00 
7.0004056e-08 -5.2928963e-09 0.0000000e+00 
6.7883590e-08 3.7421760e-10 0.0000000e+00 
7.0441040e-08 2.0030150e-08 0.0000000e+00 
6.6237632e-08 -1.1733530e-08 0.0000000e+00 
6.7181851e-08 1.3040409e-08 0.0000000e+00 
6.2661812e-08 -1.7961131e-08 0.0000000e+00 
6.2295832e-08 -5.0697602e-09 0.0000000e+00 
6.2179303e-08 4.2870254e-09 0.0000000e+00 
6.2733150e-08 1.9148622e-08 0.0000000e+00 
5.8686112e-08 -1.1196396e-08 0.0000000e+00 
5.8667062e-08 1.2183958e-08 0.0000000e+00 
5.5293217e-08 -1.7101728e-08 0.0000000e+00 
5.5060884e-08 -2.7484075e-09 0.0000000e+00 
5.4544600e-08 6.0102603e-09 0.0000000e+00 
5.5396448e-08 1.8221224e-08 0.0000000e+00 
5.1501903e-08 -1.0665931e-08 0.0000000e+00 
5.1569263e-08 1.1737747e-08 0.0000000e+00 
4.9898603e-08 1.3301666e-09 0.0000000e+00 
4.8324019e-08 -1.6195361e-08 0.0000000e+00 
4.7896130e-08 -4.5698050e-09 0.0000000e+00 
4.7955478e-08 6.8994273e-09 0.0000000e+00 
4.8416581e-08 1.7234029e-08 0.0000000e+00 
4.4694172e-08 -1.0057287e-08 0.0000000e+00 
4.4505860e-08 1.1189761e-09 0.0000000e+00 
4.4750976e-08 1.1041785e-08 0.0000000e+00 
4.1727517e-08 -1.5231226e-08 0.0000000e+00 
4.1281428e-08 -4.3102490e-09 0.0000000e+00 
4.1334992e-08 6.4816628e-09 0.0000000e+00 
4.1814250e-08 1.6189935e-08 0.0000000e+00 
3.8289414e-08 -9.4234789e-09 0.0000000e+00 
3.8091663e-08 1.0438157e-09 0.0000000e+00 
3.8341447e-08 1.0313438e-08 0.0000000e+00 
3.5545131e-08 -1.4216023e-08 0.0000000e+00 
3.5075303e-08 -4.0295962e-09 0.0000000e+00 
3.5133372e-08 6.0490395e-09 0.0000000e+00 
3.5629473e-08 1.5109855e-08 0.0000000e+00 
3.2305902e-08 -8.7585805e-09 0.0000000e+00 
3.2093240e-08 9.6321295e-10 0.0000000e+00 
3.2415755e-08 1.0678566e-08 0.0000000e+00 
2.9794869e-08 -1.3148568e-08 0.0000000e+00 
2.9301493e-08 -3.7298267e-09 0.0000000e+00 
2.9358425e-08 5.5773732e-09 0.0000000e+00 
2.9867181e-08 1.3940369e-08 0.0000000e+00 
2.6765983e-08 -8.0634432e-09 0.0000000e+00 
2.6541100e-08 8.8002999e-10 0.0000000e+00 
2.6880565e-08 9.8227169e-09 0.0000000e+00 
2.4504942e-08 -1.2025616e-08 0.0000000e+00 
2.3981702e-08 -3.4115353e-09 0.0000000e+00 
2.4040169e-08 5.0903974e-09 0.0000000e+00 
2.4574808e-08 1.2740659e-08 0.0000000e+00 
2.2067688e-08 -7.0938384e-09 0.0000000e+00 
2.1455264e-08 7.9477980e-10 0.0000000e+00 
2.1807100e-08 8.9231698e-09 0.0000000e+00 
1.9680655e-08 -1.0879785e-08 0.0000000e+00 
1.9136147e-08 -3.0867169e-09 0.0000000e+00 
1.9196458e-08 4.5849116e-09 0.0000000e+00 
1.9750628e-08 1.1489180e-08 0.0000000e+00 
1.7500833e-08 -6.6848074e-09 0.0000000e+00 
1.6849310e-08 7.0914941e-10 0.0000000e+00 
1.7217330e-08 7.9925409e-09 0.0000000e+00 
1.5323966e-08 -2.8930667e-09 0.0000000e+00 
1.5348165e-08 -9.6585291e-09 0.0000000e+00 
1.4846706e-08 4.0546277e-09 0.0000000e+00 
1.5432651e-08 1.0165690e-08 0.0000000e+00 
1.3388233e-08 -5.8377516e-09 0.0000000e+00 
1.3308753e-08 4.1766149e-10 0.0000000e+00 
1.3281088e-08 6.3726029e-09 0.0000000e+00 
1.1450879e-08 -2.5884979e-09 0.0000000e+00 
1.1534964e-08 -8.4049816e-09 0.0000000e+00 
1.1168993e-08 3.0979794e-09 0.0000000e+00 
1.0338281e-08 -5.4601164e-09 0.0000000e+00 
1.1609881e-08 8.8453218e-09 0.0000000e+00 
9.6810835e-09 -3.8756425e-11 0.0000000e+00 
9.7360875e-09 5.6305813e-09 0.0000000e+00 
8.1929779e-09 -2.5264881e-09 0.0000000e+00 
8.2376479e-09 -7.0972219e-09 0.0000000e+00 
7.8386657e-09 2.6324969e-09 0.0000000e+00 
8.3275999e-09 7.4335187e-09 0.0000000e+00 
7.0073187e-09 -4.6953041e-09 0.0000000e+00 
6.5822041e-09 -2.7861892e-11 0.0000000e+00 
6.6625963e-09 4.3989905e-09 0.0000000e+00 
5.3495914e-09 -2.1096886e-09 0.0000000e+00 
5.4972631e-09 -5.7155325e-09 0.0000000e+00 
5.1052669e-09 1.9434363e-09 0.0000000e+00 
5.5921650e-09 6.0065037e-09 0.0000000e+00 
4.4439687e-09 -3.7649781e-09 0.0000000e+00 
4.0105896e-09 -5.1858250e-11 0.0000000e+00 
4.1732142e-09 3.4894068e-09 0.0000000e+00 
3.0665359e-09 -1.6338222e-09 0.0000000e+00 
3.3459993e-09 -4.2949737e-09 0.0000000e+00 
2.8750979e-09 1.4434253e-09 0.0000000e+00 
3.4239569e-09 4.5136943e-09 0.0000000e+00 
2.2898192e-09 -2.6679992e-09 0.0000000e+00 
1.8962192e-09 -8.4188191e-11 0.0000000e+00 
2.2359397e-09 2.5038083e-09 0.0000000e+00 
1.2552770e-09 -1.0591982e-09 0.0000000e+00 
1.7930785e-09 -2.7950073e-09 0.0000000e+00 
1.2347681e-09 9.4906005e-10 0.0000000e+00 
1.1137201e-09 -1.6678288e-09 0.0000000e+00 
1.8503644e-09 2.9602729e-09 0.0000000e+00 
5.8414074e-10 -7.7689223e-11 0.0000000e+00 
7.4051959e-10 1.3051953e-09 0.0000000e+00 
3.8585632e-10 -6.7753880e-10 0.0000000e+00 
7.0431067e-10 -1.2874091e-09 0.0000000e+00 
1.4985481e-10 2.7445507e-10 0.0000000e+00 
7.9268531e-10 1.3706674e-09 0.0000000e+00 
0.0000000e+00 0.0000000e+00 0.0000000e+00 
0.0000000e+00 0.0000000e+00 0.0000000e+00 
0.0000000e+00 0.0000000e+00 0.0000000e+00 
0.0000000e+00 0.0000000e+00 0.0000000e+00 
0.0000000e+00 0.0000000e+00 0.0000000e+00 
0.0000000e+00 0.0000000e+00 0.0000000e+00 
REACTION 3 340  float
3.6279022e-07 -1.9292209e-07 0.0000000e+00 
-3.2406722e-06 -5.4449362e-07 0.0000000e+00 
-2.4640233e-06 -2.6184512e-06 0.0000000e+00 
-2.2790144e-07 1.1579060e-06 0.0000000e+00 
2.3393904e-06 -7.2195485e-07 0.0000000e+00 
2.0871387e-06 -2.5016527e-06 0.0000000e+00 
-4.1450612e-06 -7.1453371e-07 0.0000000e+00 
2.2689464e-06 -1.4966917e-06 0.0000000e+00 
8.4775400e-07 -1.5231107e-06 0.0000000e+00 
-3.3966155e-06 9.5085022e-07 0.0000000e+00 
5.2307308e-07 4.0694596e-07 0.0000000e+00 
-9.7262864e-07 4.1346206e-07 0.0000000e+00 
-2.2810473e-06 4.8986072e-07 0.0000000e+00 
1.2135778e-06 -5.4755415e-06 0.0000000e+00 
8.0614811e-08 3.7033283e-06 0.0000000e+00 
2.2223778e-06 -7.3836912e-07 0.0000000e+00 
1.8174753e-06 -7.2358085e-07 0.0000000e+00 
1.3092732e-07 1.6116876e-06 0.0000000e+00 
-3.2660221e-06 -7.0532923e-07 0.0000000e+00 
-3.0689739e-06 2.7830649e-06 0.0000000e+00 
3.0586239e-06 -1.9647091e-06 0.0000000e+00 
1.3869993e-06 -1.4238560e-07 0.0000000e+00 
-3.4573618e-06 -8.4498373e-07 0.0000000e+00 
5.4898118e-07 1.7484375e-06 0.0000000e+00 
-9.9077886e-07 1.2766646e-06 0.0000000e+00 
-5.5916746e-07 1.1059686e-07 0.0000000e+00 
7.7150013e-08 -3.0843232e-06 0.0000000e+00 
1.2885102e-06 -2.6373442e-07 0.0000000e+00 
1.8795558e-06 5.7588903e-07 0.0000000e+00 
2.5881667e-07 7.3700113e-07 0.0000000e+00 
-1.2540801e-06 2.3052962e-06 0.0000000e+00 
-2.9518667e-06 -2.7096205e-06 0.0000000e+00 
3.8423109e-06 -1.4879066e-07 0.0000000e+00 
6.5596845e-07 6.6881483e-07 0.0000000e+00 
-6.8772005e-07 1.2325311e-06 0.0000000e+00 
3.4081240e-06 -1.7318007e-07 0.0000000e+00 
-3.5683208e-06 -2.6849341e-06 0.0000000e+00 
9.4785054e-07 3.5648981e-07 0.0000000e+00 
3.0426983e-07 3.7543251e-07 0.0000000e+00 
-1.4906254e-06 3.8183193e-06 0.0000000e+00 
-7.8360239e-07 6.0390875e-08 0.0000000e+00 
1.5515712e-06 5.4244208e-07 0.0000000e+00 
2.7988722e-06 -6.3371476e-07 0.0000000e+00 
1.7778851e-06 1.1595695e-06 0.0000000e+00 
-3.1088573e-06 1.6501670e-06 0.0000000e+00 
-1.2125402e-06 -1.4318523e-06 0.0000000e+00 
4.9987843e-06 9.7457485e-07 0.0000000e+00 
1.7147372e-06 -1.7259611e-06 0.0000000e+00 
-2.0432115e-06 2.4396693e-06 0.0000000e+00 
2.6266073e-06 -8.5352923e-07 0.0000000e+00 
-8.4572480e-07 -1.1660641e-06 0.0000000e+00 
-3.2060332e-06 -2.7159047e-06 0.0000000e+00 
2.0145529e-07 -8.0261970e-07 0.0000000e+00 
2.9823559e-06 -1.9180497e-06 0.0000000e+00 
-2.7545304e-06 1.1290195e-07 0.0000000e+00 
1.1324862e-06 2.3092807e-06 0.0000000e+00 
2.2549841e-07 -5.2306527e-06 0.0000000e+00 
-1.0941236e-06 -5.1312469e-08 0.0000000e+00 
-3.6710510e-06 4.2144029e-06 0.0000000e+00 
3.8925694e-07 -2.1846604e-07 0.0000000e+00 
2.8956222e-06 -2.3832605e-08 0.0000000e+00 
1.7133177e-06 -2.3497441e-06 0.0000000e+00 
-2.1819860e-06 9.8612850e-07 0.0000000e+00 
1.8144235e-06 2.3660975e-06 0.0000000e+00 
-4.0682544e-06 -4.5408970e-06 0.0000000e+00 
-2.7385272e-07 -8.0303579e-07 0.0000000e+00 
2.0345742e-06 9.4168718e-07 0.0000000e+00 
4.6755173e-07 2.1061537e-08 0.0000000e+00 
-5.7720246e-07 2.0266630e-06 0.0000000e+00 
2.0736393e-06 -2.5914605e-06 0.0000000e+00 
-3.8045948e-07 -7.8220427e-07 0.0000000e+00 
-3.3873873e-06 -1.1373676e-06 0.0000000e+00 
5.8818070e-08 1.4364848e-06 0.0000000e+00 
-7.7957606e-07 1.2626965e-06 0.0000000e+00 
-2.7868313e-07 1.9343665e-06 0.0000000e+00 
4.4747690e-06 7.8945010e-07 0.0000000e+00 
-1.1054246e-06 2.6712776e-06 0.0000000e+00 
1.4353579e-06 2.9471250e-06 0.0000000e+00 
-9.1866343e-07 1.6382019e-06 0.0000000e+00 
8.3465579e-07 3.7361718e-07 0.0000000e+00 
9.3989337e-07 9.6033034e-08 0.0000000e+00 
8.7141643e-07 -2.5653342e-06 0.0000000e+00 
-3.6146255e-07 -2.8257596e-06 0.0000000e+00 
-3.6857900e-06 5.4927193e-07 0.0000000e+00 
-7.4704064e-07 -1.8509133e-06 0.0000000e+00 
2.3798032e-06 -3.8639135e-07 0.0000000e+00 
1.4827777e-06 -1.3452593e-07 0.0000000e+00 
-3.3241798e-07 8.7496454e-07 0.0000000e+00 
-1.2280512e-06 -1.1966861e-06 0.0000000e+00 
1.0888406e-06 1.7779128e-06 0.0000000e+00 
-1.8974438e-06 -1.3354343e-06 0.0000000e+00 
7.6997537e-07 -1.7529376e-06 0.0000000e+00 
1.4921902e-06 1.0263836e-06 0.0000000e+00 
2.5084641e-06 -1.6055648e-06 0.0000000e+00 
-2.0213945e-06 -1.7161975e-07 0.0000000e+00 
-8.2177831e-07 2.1336812e-06 0.0000000e+00 
6.3345686e-07 9.8980900e-07 0.0000000e+00 
-1.6353425e-06 -7.0338729e-08 0.0000000e+00 
-2.4118654e-07 2.2584898e-06 0.0000000e+00 
-2.6671867e-06 -8.1207116e-07 0.0000000e+00 
1.4183240e-06 -1.7679875e-07 0.0000000e+00 
9.8407622e-07 -1.0839013e-06 0.0000000e+00 
1.5577288e-06 -2.1329711e-07 0.0000000e+00 
-1.7446904e-06 3.7824080e-07 0.0000000e+00 
-1.2202894e-06 9.9379224e-07 0.0000000e+00 
3.9340230e-07 -1.0489082e-06 0.0000000e+00 
-1.8355660e-06 -1.2582808e-06 0.0000000e+00 
3.4378556e-06 6.5547607e-07 0.0000000e+00 
1.6737811e-06 6.6312219e-07 0.0000000e+00 
4.5414907e-07 -1.0572753e-06 0.0000000e+00 
2.6902109e-07 -2.6410760e-06 0.0000000e+00 
-1.8749616e-06 1.1295804e-07 0.0000000e+00 
-1.1660451e-06 -1.2223753e-06 0.0000000e+00 
-2.1789831e-06 -1.0609139e-06 0.0000000e+00 
4.3727132e-06 -8.2484257e-07 0.0000000e+00 
-1.5474548e-06 5.4200285e-07 0.0000000e+00 
-1.9344927e-08 -1.1206317e-06 0.0000000e+00 