# vtk DataFile Version 4.0
vtk output
ASCII
DATASET UNSTRUCTURED_GRID
POINTS 340 float
1.0000000e+00 1.0000000e+01 0.0000000e+00 
1.0000000e+00 9.8000002e+00 0.0000000e+00 
8.0000001e-01 1.0000000e+01 0.0000000e+00 
7.2964472e-01 9.8093147e+00 0.0000000e+00 
8.4182751e-01 9.6382694e+00 0.0000000e+00 
6.0000002e-01 1.0000000e+01 0.0000000e+00 
1.0000000e+00 9.6000004e+00 0.0000000e+00 
5.0000000e-01 9.8267946e+00 0.0000000e+00 
6.3604087e-01 9.5908260e+00 0.0000000e+00 
8.4263843e-01 9.4342804e+00 0.0000000e+00 
4.0000001e-01 1.0000000e+01 0.0000000e+00 
1.0000000e+00 9.3999996e+00 0.0000000e+00 
4.0534732e-01 9.6340141e+00 0.0000000e+00 
2.7881753e-01 9.8140564e+00 0.0000000e+00 
6.7177695e-01 9.3303623e+00 0.0000000e+00 
4.9604306e-01 9.4256926e+00 0.0000000e+00 
8.4713864e-01 9.2343493e+00 0.0000000e+00 
2.0000000e-01 1.0000000e+01 0.0000000e+00 
1.0000000e+00 9.1999998e+00 0.0000000e+00 
3.0000001e-01 9.4803848e+00 0.0000000e+00 
1.6755788e-01 9.6235323e+00 0.0000000e+00 
6.7617422e-01 9.1307087e+00 0.0000000e+00 
4.8477495e-01 9.2195473e+00 0.0000000e+00 
8.5255039e-01 9.0345669e+00 0.0000000e+00 
0.0000000e+00 1.0000000e+01 0.0000000e+00 
1.0000000e+00 9.0000000e+00 0.0000000e+00 
0.0000000e+00 9.8000002e+00 0.0000000e+00 
2.2804837e-01 9.2825413e+00 0.0000000e+00 
0.0000000e+00 9.6000004e+00 0.0000000e+00 
5.0581944e-01 9.0259790e+00 0.0000000e+00 
3.3078760e-01 9.1219988e+00 0.0000000e+00 
6.8160146e-01 8.9308100e+00 0.0000000e+00 
0.0000000e+00 9.3999996e+00 0.0000000e+00 
8.5683817e-01 8.8346405e+00 0.0000000e+00 
1.0000000e+00 8.8000002e+00 0.0000000e+00 
1.7320508e-01 9.1000004e+00 0.0000000e+00 
3.3639798e-01 8.9224386e+00 0.0000000e+00 
5.1166874e-01 8.8261728e+00 0.0000000e+00 
0.0000000e+00 9.1999998e+00 0.0000000e+00 
6.8573916e-01 8.7312880e+00 0.0000000e+00 
1.7320508e-01 8.8999996e+00 0.0000000e+00 
1.0000000e+00 8.6000004e+00 0.0000000e+00 
0.0000000e+00 9.0000000e+00 0.0000000e+00 
3.4077987e-01 8.7225189e+00 0.0000000e+00 
5.1553297e-01 8.6263428e+00 0.0000000e+00 
7.3636049e-01 8.5193882e+00 0.0000000e+00 
0.0000000e+00 8.8000002e+00 0.0000000e+00 
1.0000000e+00 8.3999996e+00 0.0000000e+00 
1.7061394e-01 8.6176825e+00 0.0000000e+00 
3.4670532e-01 8.5231361e+00 0.0000000e+00 
5.2180642e-01 8.4266043e+00 0.0000000e+00 
7.4737626e-01 8.3175163e+00 0.0000000e+00 
0.0000000e+00 8.6000004e+00 0.0000000e+00 
1.7467257e-01 8.4178057e+00 0.0000000e+00 
3.5083947e-01 8.3232317e+00 0.0000000e+00 
1.0000000e+00 8.1999998e+00 0.0000000e+00 
5.2511263e-01 8.2268429e+00 0.0000000e+00 
0.0000000e+00 8.3999996e+00 0.0000000e+00 
7.5983411e-01 8.1149063e+00 0.0000000e+00 
1.8103610e-01 8.2179594e+00 0.0000000e+00 
3.5745192e-01 8.1241884e+00 0.0000000e+00 
1.0000000e+00 8.0000000e+00 0.0000000e+00 
5.3222626e-01 8.0272846e+00 0.0000000e+00 
0.0000000e+00 8.1999998e+00 0.0000000e+00 
7.5571120e-01 7.9173551e+00 0.0000000e+00 
1.8344399e-01 8.0151854e+00 0.0000000e+00 
3.6146736e-01 7.9243879e+00 0.0000000e+00 
1.0000000e+00 7.8000002e+00 0.0000000e+00 
5.3374660e-01 7.8279252e+00 0.0000000e+00 
0.0000000e+00 8.0000000e+00 0.0000000e+00 
7.6374203e-01 7.7163153e+00 0.0000000e+00 
1.9437179e-01 7.8156433e+00 0.0000000e+00 
3.7308612e-01 7.7272835e+00 0.0000000e+00 
1.0000000e+00 7.5999999e+00 0.0000000e+00 
5.4554766e-01 7.6299233e+00 0.0000000e+00 
0.0000000e+00 7.8000002e+00 0.0000000e+00 
7.4744660e-01 7.5226874e+00 0.0000000e+00 
2.0444529e-01 7.6206732e+00 0.0000000e+00 
3.8187346e-01 7.5294333e+00 0.0000000e+00 
0.0000000e+00 7.5999999e+00 0.0000000e+00 
1.0000000e+00 7.4000001e+00 0.0000000e+00 
5.2131432e-01 7.4393973e+00 0.0000000e+00 
1.9729473e-01 7.4537926e+00 0.0000000e+00 
7.0935732e-01 7.3327885e+00 0.0000000e+00 
3.5328710e-01 7.3320160e+00 0.0000000e+00 
8.4863865e-01 7.2198439e+00 0.0000000e+00 
0.0000000e+00 7.4000001e+00 0.0000000e+00 
5.3123343e-01 7.2420211e+00 0.0000000e+00 
1.0000000e+00 7.1999998e+00 0.0000000e+00 
1.7718045e-01 7.2569203e+00 0.0000000e+00 
6.6225648e-01 7.1541371e+00 0.0000000e+00 
3.4724638e-01 7.1689978e+00 0.0000000e+00 
8.3611876e-01 7.0656843e+00 0.0000000e+00 
0.0000000e+00 7.1999998e+00 0.0000000e+00 
4.9535713e-01 7.0473509e+00 0.0000000e+00 
1.0000000e+00 7.0000000e+00 0.0000000e+00 
1.7387313e-01 7.0734706e+00 0.0000000e+00 
6.6474640e-01 6.9560146e+00 0.0000000e+00 
3.4690949e-01 6.9773350e+00 0.0000000e+00 
8.4107113e-01 6.8641090e+00 0.0000000e+00 
0.0000000e+00 7.0000000e+00 0.0000000e+00 
5.2873749e-01 6.8578229e+00 0.0000000e+00 
1.0000000e+00 6.8000002e+00 0.0000000e+00 
1.7445621e-01 6.8769779e+00 0.0000000e+00 
6.7736709e-01 6.7575765e+00 0.0000000e+00 
3.4595537e-01 6.7778087e+00 0.0000000e+00 
8.3462298e-01 6.6689000e+00 0.0000000e+00 
0.0000000e+00 6.8000002e+00 0.0000000e+00 
5.0501287e-01 6.6597099e+00 0.0000000e+00 
1.0000000e+00 6.5999999e+00 0.0000000e+00 
1.8097465e-01 6.6789780e+00 0.0000000e+00 
6.6962856e-01 6.5595260e+00 0.0000000e+00 
3.2066780e-01 6.5871606e+00 0.0000000e+00 
8.3965176e-01 6.4710097e+00 0.0000000e+00 
0.0000000e+00 6.5999999e+00 0.0000000e+00 
4.8932999e-01 6.4914999e+00 0.0000000e+00 
1.0000000e+00 6.4000001e+00 0.0000000e+00 
1.4997987e-01 6.4839683e+00 0.0000000e+00 
6.6350561e-01 6.3954086e+00 0.0000000e+00 
3.2280096e-01 6.3877153e+00 0.0000000e+00 
8.3153027e-01 6.2889266e+00 0.0000000e+00 
0.0000000e+00 6.4000001e+00 0.0000000e+00 
4.9695736e-01 6.2927222e+00 0.0000000e+00 
1.0000000e+00 6.1999998e+00 0.0000000e+00 
1.6071729e-01 6.2864423e+00 0.0000000e+00 
6.5358984e-01 6.1999998e+00 0.0000000e+00 
3.3329538e-01 6.1896143e+00 0.0000000e+00 
8.1998920e-01 6.0895286e+00 0.0000000e+00 
0.0000000e+00 6.1999998e+00 0.0000000e+00 
4.8038477e-01 6.0999999e+00 0.0000000e+00 
1.7059118e-01 6.0888028e+00 0.0000000e+00 
1.0000000e+00 6.0000000e+00 0.0000000e+00 
6.5358984e-01 6.0000000e+00 0.0000000e+00 
3.0717969e-01 6.0000000e+00 0.0000000e+00 
8.2679492e-01 5.9000001e+00 0.0000000e+00 
0.0000000e+00 6.0000000e+00 0.0000000e+00 
4.8038477e-01 5.9000001e+00 0.0000000e+00 
1.3397460e-01 5.9000001e+00 0.0000000e+00 
1.0000000e+00 5.8000002e+00 0.0000000e+00 
6.5358984e-01 5.8000002e+00 0.0000000e+00 
3.0717969e-01 5.8000002e+00 0.0000000e+00 
8.2679492e-01 5.6999998e+00 0.0000000e+00 
0.0000000e+00 5.8000002e+00 0.0000000e+00 
4.8038477e-01 5.6999998e+00 0.0000000e+00 
1.3397460e-01 5.6999998e+00 0.0000000e+00 
1.0000000e+00 5.5999999e+00 0.0000000e+00 
6.5358984e-01 5.5999999e+00 0.0000000e+00 
3.2231969e-01 5.6385756e+00 0.0000000e+00 
8.2679492e-01 5.5000000e+00 0.0000000e+00 
0.0000000e+00 5.5999999e+00 0.0000000e+00 
4.8038477e-01 5.5000000e+00 0.0000000e+00 
1.7059118e-01 5.5111971e+00 0.0000000e+00 
1.0000000e+00 5.4000001e+00 0.0000000e+00 
6.5358984e-01 5.4000001e+00 0.0000000e+00 
3.3329538e-01 5.3896141e+00 0.0000000e+00 
8.2679492e-01 5.3000002e+00 0.0000000e+00 
0.0000000e+00 5.4000001e+00 0.0000000e+00 
4.8038477e-01 5.3000002e+00 0.0000000e+00 
1.7059118e-01 5.2888031e+00 0.0000000e+00 
1.0000000e+00 5.1999998e+00 0.0000000e+00 
6.5358984e-01 5.1999998e+00 0.0000000e+00 
3.0717969e-01 5.1999998e+00 0.0000000e+00 
8.2679492e-01 5.0999999e+00 0.0000000e+00 
0.0000000e+00 5.1999998e+00 0.0000000e+00 
4.8038477e-01 5.0999999e+00 0.0000000e+00 
1.3397460e-01 5.0999999e+00 0.0000000e+00 
1.0000000e+00 5.0000000e+00 0.0000000e+00 
6.5358984e-01 5.0000000e+00 0.0000000e+00 
3.0717969e-01 5.0000000e+00 0.0000000e+00 
0.0000000e+00 5.0000000e+00 0.0000000e+00 
8.2679492e-01 4.9000001e+00 0.0000000e+00 
4.8038477e-01 4.9000001e+00 0.0000000e+00 
1.3397460e-01 4.9000001e+00 0.0000000e+00 
1.0000000e+00 4.8000002e+00 0.0000000e+00 
6.5358984e-01 4.8000002e+00 0.0000000e+00 
3.0717969e-01 4.8000002e+00 0.0000000e+00 
0.0000000e+00 4.8000002e+00 0.0000000e+00 
8.2679492e-01 4.6999998e+00 0.0000000e+00 
4.8038477e-01 4.6999998e+00 0.0000000e+00 
1.3397460e-01 4.6999998e+00 0.0000000e+00 
1.0000000e+00 4.5999999e+00 0.0000000e+00 
6.5358984e-01 4.5999999e+00 0.0000000e+00 
3.0717969e-01 4.5999999e+00 0.0000000e+00 
0.0000000e+00 4.5999999e+00 0.0000000e+00 
8.2679492e-01 4.5000000e+00 0.0000000e+00 
4.8038477e-01 4.5000000e+00 0.0000000e+00 
1.3397460e-01 4.5000000e+00 0.0000000e+00 
1.0000000e+00 4.4000001e+00 0.0000000e+00 
6.5358984e-01 4.4000001e+00 0.0000000e+00 
3.0717969e-01 4.4000001e+00 0.0000000e+00 
8.3046603e-01 4.3165317e+00 0.0000000e+00 
0.0000000e+00 4.4000001e+00 0.0000000e+00 
4.8038477e-01 4.3000002e+00 0.0000000e+00 
1.7059118e-01 4.3111973e+00 0.0000000e+00 
6.6123927e-01 4.2184782e+00 0.0000000e+00 
1.0000000e+00 4.1999998e+00 0.0000000e+00 
3.3329538e-01 4.2103858e+00 0.0000000e+00 
8.3268768e-01 4.1176395e+00 0.0000000e+00 
0.0000000e+00 4.1999998e+00 0.0000000e+00 
4.9695736e-01 4.1072779e+00 0.0000000e+00 
1.6071729e-01 4.1135573e+00 0.0000000e+00 
1.0000000e+00 4.0000000e+00 0.0000000e+00 
3.2280096e-01 4.0122848e+00 0.0000000e+00 
6.4947557e-01 3.9632084e+00 0.0000000e+00 
8.4590596e-01 3.9203768e+00 0.0000000e+00 
0.0000000e+00 4.0000000e+00 0.0000000e+00 
4.7627035e-01 3.9377375e+00 0.0000000e+00 
1.4997987e-01 3.9160316e+00 0.0000000e+00 
1.0000000e+00 3.8000000e+00 0.0000000e+00 
3.2066780e-01 3.8128395e+00 0.0000000e+00 
5.1165128e-01 3.7661045e+00 0.0000000e+00 
0.0000000e+00 3.8000000e+00 0.0000000e+00 
7.4880123e-01 3.7184730e+00 0.0000000e+00 
1.8097465e-01 3.7210221e+00 0.0000000e+00 
1.0000000e+00 3.5999999e+00 0.0000000e+00 
3.4595537e-01 3.6221914e+00 0.0000000e+00 
5.2873749e-01 3.5421770e+00 0.0000000e+00 
0.0000000e+00 3.5999999e+00 0.0000000e+00 
1.7445621e-01 3.5230222e+00 0.0000000e+00 
7.1247655e-01 3.4632580e+00 0.0000000e+00 
1.0000000e+00 3.4000001e+00 0.0000000e+00 
3.4690949e-01 3.4226651e+00 0.0000000e+00 
0.0000000e+00 3.4000001e+00 0.0000000e+00 
5.1989859e-01 3.3223066e+00 0.0000000e+00 
8.2679492e-01 3.3000000e+00 0.0000000e+00 
1.7356591e-01 3.3231418e+00 0.0000000e+00 
1.0000000e+00 3.2000000e+00 0.0000000e+00 
3.4647828e-01 3.2226951e+00 0.0000000e+00 
6.5358984e-01 3.2000000e+00 0.0000000e+00 
5.0604391e-01 3.1465836e+00 0.0000000e+00 
[...]
POINT_DATA 340
FIELD FieldData 3
DISPLACEMENT 3 340  float
-6.3492193e-06 4.4558331e-07 0.0000000e+00 
-6.1741916e-06 4.4540002e-07 0.0000000e+00 
-6.3491534e-06 2.7058505e-07 0.0000000e+00 
-6.1822561e-06 2.0886279e-07 0.0000000e+00 
-6.0325024e-06 3.0680062e-07 0.0000000e+00 
-6.3491188e-06 9.5635144e-08 0.0000000e+00 
-5.9990530e-06 4.4519322e-07 0.0000000e+00 
-6.1975734e-06 8.0756086e-09 0.0000000e+00 
-5.9908925e-06 1.2682121e-07 0.0000000e+00 
-5.8537776e-06 3.0721381e-07 0.0000000e+00 
-6.3491880e-06 -7.9282380e-08 0.0000000e+00 
-5.8238597e-06 4.4485512e-07 0.0000000e+00 
-6.0287880e-06 -7.4758383e-08 0.0000000e+00 
-6.1865467e-06 -1.8535064e-07 0.0000000e+00 
-5.7626330e-06 1.5773836e-07 0.0000000e+00 
-5.8461947e-06 4.3790362e-09 0.0000000e+00 
-5.6785975e-06 3.1072838e-07 0.0000000e+00 
-6.3493499e-06 -2.5424870e-07 0.0000000e+00 
-5.6486770e-06 4.4432807e-07 0.0000000e+00 
-5.8942496e-06 -1.6684616e-07 0.0000000e+00 
-6.0198031e-06 -2.8271461e-07 0.0000000e+00 
-5.5876717e-06 1.6126839e-07 0.0000000e+00 
-5.6655099e-06 -5.5452500e-09 0.0000000e+00 
-5.5036230e-06 3.1487730e-07 0.0000000e+00 
-6.3495377e-06 -4.2926092e-07 0.0000000e+00 
-5.4735960e-06 4.4355284e-07 0.0000000e+00 
-6.1744995e-06 -4.2932405e-07 0.0000000e+00 
-5.7208963e-06 -2.2966448e-07 0.0000000e+00 
-5.9993777e-06 -4.2935423e-07 0.0000000e+00 
-5.4958737e-06 1.2668732e-08 0.0000000e+00 
-5.5800865e-06 -1.3990241e-07 0.0000000e+00 
-5.4126203e-06 1.6557830e-07 0.0000000e+00 
-5.8241521e-06 -4.2927684e-07 0.0000000e+00 
-5.3287295e-06 3.1784631e-07 0.0000000e+00 
-5.2988685e-06 4.4242145e-07 0.0000000e+00 
-5.5609489e-06 -2.7736999e-07 0.0000000e+00 
-5.4052516e-06 -1.3487835e-07 0.0000000e+00 
-5.3209983e-06 1.7595200e-08 0.0000000e+00 
-5.6489148e-06 -4.2906061e-07 0.0000000e+00 
-5.2382006e-06 1.6865123e-07 0.0000000e+00 
-5.3857311e-06 -2.7702330e-07 0.0000000e+00 
-5.1242992e-06 4.4106207e-07 0.0000000e+00 
-5.4735674e-06 -4.2860196e-07 0.0000000e+00 
-5.2304299e-06 -1.3089482e-07 0.0000000e+00 
-5.1464599e-06 2.0765023e-08 0.0000000e+00 
-5.0534854e-06 2.1174850e-07 0.0000000e+00 
-5.2985110e-06 -4.2784563e-07 0.0000000e+00 
-4.9503792e-06 4.3949566e-07 0.0000000e+00 
-5.1390543e-06 -2.7852531e-07 0.0000000e+00 
-5.0564950e-06 -1.2554611e-07 0.0000000e+00 
-4.9724999e-06 2.5935003e-08 0.0000000e+00 
-4.8780580e-06 2.2031470e-07 0.0000000e+00 
-5.1239463e-06 -4.2683595e-07 0.0000000e+00 
-4.9650457e-06 -2.7424301e-07 0.0000000e+00 
-4.8827105e-06 -1.2169168e-07 0.0000000e+00 
-4.7770518e-06 4.3760849e-07 0.0000000e+00 
-4.7991516e-06 2.8506573e-08 0.0000000e+00 
-4.9499677e-06 -4.2553089e-07 0.0000000e+00 
-4.7026911e-06 2.2992234e-07 0.0000000e+00 
-4.7916983e-06 -2.6781467e-07 0.0000000e+00 
-4.7103563e-06 -1.1565233e-07 0.0000000e+00 
-4.6044820e-06 4.3538859e-07 0.0000000e+00 
-4.6267128e-06 3.4298200e-08 0.0000000e+00 
-4.7766448e-06 -4.2394689e-07 0.0000000e+00 
-4.5324628e-06 2.2512255e-07 0.0000000e+00 
-4.6165869e-06 -2.6463778e-07 0.0000000e+00 
-4.5381416e-06 -1.1179672e-07 0.0000000e+00 
-4.4327812e-06 4.3290132e-07 0.0000000e+00 
-4.4552903e-06 3.5264097e-08 0.0000000e+00 
-4.6040868e-06 -4.2207603e-07 0.0000000e+00 
-4.3601858e-06 2.3054061e-07 0.0000000e+00 
-4.4451099e-06 -2.5402178e-07 0.0000000e+00 
-4.3691221e-06 -1.0142821e-07 0.0000000e+00 
-4.2620945e-06 4.3007870e-07 0.0000000e+00 
-4.2859956e-06 4.4879052e-08 0.0000000e+00 
-4.4324161e-06 -4.1994150e-07 0.0000000e+00 
-4.1951912e-06 2.1517272e-07 0.0000000e+00 
-4.2784704e-06 -2.4406100e-07 0.0000000e+00 
-4.2004685e-06 -9.3508518e-08 0.0000000e+00 
-4.2617444e-06 -4.1753799e-07 0.0000000e+00 
-4.0924074e-06 4.2706770e-07 0.0000000e+00 
-4.1240742e-06 2.3981581e-08 0.0000000e+00 
-4.1367152e-06 -2.4880359e-07 0.0000000e+00 
-4.0343502e-06 1.8151127e-07 0.0000000e+00 
-4.0333916e-06 -1.1691206e-07 0.0000000e+00 
-3.9398560e-06 2.9722364e-07 0.0000000e+00 
-4.0921500e-06 -4.1478100e-07 0.0000000e+00 
-3.9575571e-06 3.1966731e-08 0.0000000e+00 
-3.9241540e-06 4.2363811e-07 0.0000000e+00 
-3.9706315e-06 -2.6392135e-07 0.0000000e+00 
-3.8840039e-06 1.4090499e-07 0.0000000e+00 
-3.8963435e-06 -1.2131602e-07 0.0000000e+00 
-3.8107316e-06 2.8474298e-07 0.0000000e+00 
-3.9237925e-06 -4.1165976e-07 0.0000000e+00 
-3.7945042e-06 1.9222466e-09 0.0000000e+00 
-3.7571449e-06 4.1983981e-07 0.0000000e+00 
-3.8169942e-06 -2.6478273e-07 0.0000000e+00 
-3.7187497e-06 1.4166309e-07 0.0000000e+00 
-3.7363532e-06 -1.2062642e-07 0.0000000e+00 
-3.6434019e-06 2.8604580e-07 0.0000000e+00 
-3.7568104e-06 -4.0823906e-07 0.0000000e+00 
-3.6371516e-06 2.9253188e-08 0.0000000e+00 
-3.5916680e-06 4.1571872e-07 0.0000000e+00 
-3.6537363e-06 -2.6206502e-07 0.0000000e+00 
-3.5547996e-06 1.5046055e-07 0.0000000e+00 
-3.5712865e-06 -1.2039072e-07 0.0000000e+00 
-3.4827904e-06 2.7783094e-07 0.0000000e+00 
-3.5913199e-06 -4.0451889e-07 0.0000000e+00 
-3.4742009e-06 9.5779544e-09 0.0000000e+00 
-3.4277973e-06 4.1131622e-07 0.0000000e+00 
-3.4907503e-06 -2.5427505e-07 0.0000000e+00 
-3.3927365e-06 1.4256781e-07 0.0000000e+00 
-3.4151631e-06 -1.3983718e-07 0.0000000e+00 
-3.3217241e-06 2.7879165e-07 0.0000000e+00 
-3.4274881e-06 -4.0056054e-07 0.0000000e+00 
-3.3371393e-06 -3.2349230e-09 0.0000000e+00 
-3.2656860e-06 4.0657449e-07 0.0000000e+00 
-3.3320343e-06 -2.7671373e-07 0.0000000e+00 
-3.2597306e-06 1.3627132e-07 0.0000000e+00 
-3.2534572e-06 -1.3665294e-07 0.0000000e+00 
-3.1750264e-06 2.6925531e-07 0.0000000e+00 
-3.2653134e-06 -3.9611359e-07 0.0000000e+00 
-3.1768402e-06 2.7676976e-09 0.0000000e+00 
-3.1054603e-06 4.0156016e-07 0.0000000e+00 
-3.1728375e-06 -2.6509855e-07 0.0000000e+00 
-3.1030384e-06 1.2665627e-07 0.0000000e+00 
-3.0946705e-06 -1.2680947e-07 0.0000000e+00 
-3.0161912e-06 2.5668055e-07 0.0000000e+00 
-3.1050918e-06 -3.9147588e-07 0.0000000e+00 
-3.0232829e-06 -1.0442682e-08 0.0000000e+00 
-3.0154342e-06 -2.5412345e-07 0.0000000e+00 
-2.9472264e-06 3.9631666e-07 0.0000000e+00 
-2.9446453e-06 1.2492890e-07 0.0000000e+00 
-2.9446544e-06 -1.4580669e-07 0.0000000e+00 
-2.8672205e-06 2.5858640e-07 0.0000000e+00 
-2.9468588e-06 -3.8663921e-07 0.0000000e+00 
-2.8659081e-06 -1.0401621e-08 0.0000000e+00 
-2.8672130e-06 -2.7946308e-07 0.0000000e+00 
-2.7910769e-06 3.9070065e-07 0.0000000e+00 
-2.7883661e-06 1.2308088e-07 0.0000000e+00 
-2.7883730e-06 -1.4391041e-07 0.0000000e+00 
-2.7121077e-06 2.5477001e-07 0.0000000e+00 
-2.7906474e-06 -3.8124566e-07 0.0000000e+00 
-2.7107205e-06 -1.0339488e-08 0.0000000e+00 
-2.7121323e-06 -2.7562581e-07 0.0000000e+00 
-2.6371865e-06 3.8480079e-07 0.0000000e+00 
-2.6343425e-06 1.2113530e-07 0.0000000e+00 
-2.6638170e-06 -1.3071326e-07 0.0000000e+00 
-2.5592924e-06 2.5075420e-07 0.0000000e+00 
-2.6368164e-06 -3.7555102e-07 0.0000000e+00 
-2.5578574e-06 -1.0296250e-08 0.0000000e+00 
-2.5675847e-06 -2.4408072e-07 0.0000000e+00 
-2.4856279e-06 3.7862253e-07 0.0000000e+00 
-2.4826686e-06 1.1909215e-07 0.0000000e+00 
-2.4747403e-06 -1.2006319e-07 0.0000000e+00 
-2.4088490e-06 2.4654759e-07 0.0000000e+00 
-2.4853227e-06 -3.6983641e-07 0.0000000e+00 
-2.4073522e-06 -1.0334166e-08 0.0000000e+00 
-2.4003100e-06 -2.3965609e-07 0.0000000e+00 
-2.3364960e-06 3.7215347e-07 0.0000000e+00 
-2.3333851e-06 1.1695489e-07 0.0000000e+00 
-2.3334953e-06 -1.3745493e-07 0.0000000e+00 
-2.2608763e-06 2.4213418e-07 0.0000000e+00 
-2.3362606e-06 -3.6377386e-07 0.0000000e+00 
-2.2593665e-06 -1.0222442e-08 0.0000000e+00 
-2.2611518e-06 -2.6246056e-07 0.0000000e+00 
-2.1898932e-06 3.6537543e-07 0.0000000e+00 
-2.1866624e-06 1.1474499e-07 0.0000000e+00 
-2.1868893e-06 -1.3504037e-07 0.0000000e+00 
-2.1899330e-06 -3.5714098e-07 0.0000000e+00 
-2.1154901e-06 2.3751549e-07 0.0000000e+00 
-2.1139692e-06 -1.0078786e-08 0.0000000e+00 
-2.1160615e-06 -2.5765360e-07 0.0000000e+00 
-2.0459304e-06 3.5826972e-07 0.0000000e+00 
-2.0425587e-06 1.1244946e-07 0.0000000e+00 
-2.0429068e-06 -1.3243182e-07 0.0000000e+00 
-2.0463399e-06 -3.5031113e-07 0.0000000e+00 
-1.9727765e-06 2.3266306e-07 0.0000000e+00 
-1.9712270e-06 -9.8885957e-09 0.0000000e+00 
-1.9735501e-06 -2.5249577e-07 0.0000000e+00 
-1.9047114e-06 3.5078483e-07 0.0000000e+00 
-1.9011646e-06 1.1005054e-07 0.0000000e+00 
-1.9016022e-06 -1.2963396e-07 0.0000000e+00 
-1.9052237e-06 -3.4308962e-07 0.0000000e+00 
-1.8328473e-06 2.2753423e-07 0.0000000e+00 
-1.8312386e-06 -9.6555706e-09 0.0000000e+00 
-1.8337161e-06 -2.4707239e-07 0.0000000e+00 
-1.7663913e-06 3.4284272e-07 0.0000000e+00 
-1.7626245e-06 1.0752635e-07 0.0000000e+00 
-1.7630937e-06 -1.2664037e-07 0.0000000e+00 
-1.7071189e-06 2.2503188e-07 0.0000000e+00 
-1.7670125e-06 -3.3525700e-07 0.0000000e+00 
-1.6941897e-06 -9.3917922e-09 0.0000000e+00 
-1.7039646e-06 -2.1686584e-07 0.0000000e+00 
-1.6395430e-06 1.1020715e-07 0.0000000e+00 
-1.6311399e-06 3.3430908e-07 0.0000000e+00 
-1.6343756e-06 -1.0639089e-07 0.0000000e+00 
-1.5738051e-06 2.2065716e-07 0.0000000e+00 
-1.6317931e-06 -3.2724265e-07 0.0000000e+00 
-1.5650470e-06 1.5513709e-09 0.0000000e+00 
-1.5716620e-06 -2.1772678e-07 0.0000000e+00 
-1.4993304e-06 3.2504249e-07 0.0000000e+00 
-1.5034301e-06 -1.1021218e-07 0.0000000e+00 
-1.4707473e-06 9.8752032e-08 0.0000000e+00 
-1.4453364e-06 2.2301728e-07 0.0000000e+00 
-1.4996147e-06 -3.1849635e-07 0.0000000e+00 
-1.4544407e-06 -1.1507169e-08 0.0000000e+00 
-1.4426844e-06 -2.1858108e-07 0.0000000e+00 
-1.3713311e-06 3.1466280e-07 0.0000000e+00 
-1.3749436e-06 -1.0822018e-07 0.0000000e+00 
-1.3447776e-06 1.0722481e-08 0.0000000e+00 
-1.3710421e-06 -3.0887108e-07 0.0000000e+00 
-1.3158999e-06 1.5620127e-07 0.0000000e+00 
-1.3183272e-06 -1.9285123e-07 0.0000000e+00 
-1.2467406e-06 3.0475385e-07 0.0000000e+00 
-1.2553055e-06 -8.9844313e-08 0.0000000e+00 
-1.2058814e-06 2.0045709e-08 0.0000000e+00 
-1.2465133e-06 -2.9895037e-07 0.0000000e+00 
-1.1965562e-06 -1.9023142e-07 0.0000000e+00 
-1.1595012e-06 1.2751241e-07 0.0000000e+00 
-1.1273477e-06 2.9471713e-07 0.0000000e+00 
-1.1346550e-06 -8.6213845e-08 0.0000000e+00 
-1.1262952e-06 -2.8816868e-07 0.0000000e+00 
-1.0752564e-06 1.4121913e-08 0.0000000e+00 
-1.0650895e-06 1.8861849e-07 0.0000000e+00 
-1.0779856e-06 -1.8364560e-07 0.0000000e+00 
-1.0112321e-06 2.8250562e-07 0.0000000e+00 
-1.0182059e-06 -8.3238149e-08 0.0000000e+00 
-1.0053234e-06 8.8172236e-08 0.0000000e+00 
-9.7455472e-07 6.3046377e-09 0.0000000e+00 
-1.0106942e-06 -2.7671069e-07 0.0000000e+00 
-9.5138085e-07 1.8054908e-07 0.0000000e+00 
-9.6397582e-07 -1.7626549e-07 0.0000000e+00 
-9.0021297e-07 2.6979012e-07 0.0000000e+00 
-8.9434451e-07 8.4158920e-08 0.0000000e+00 
-8.9226944e-07 -5.0611202e-08 0.0000000e+00 
-8.9970729e-07 -2.6460975e-07 0.0000000e+00 
-8.4268311e-07 1.7196618e-07 0.0000000e+00 
-8.4141607e-07 -1.6467261e-07 0.0000000e+00 
-7.9417106e-07 2.5652321e-07 0.0000000e+00 
-7.9013523e-07 4.9972538e-08 0.0000000e+00 
-7.8233603e-07 -7.6171304e-08 0.0000000e+00 
-7.9412814e-07 -2.5186782e-07 0.0000000e+00 
-7.3933086e-07 1.6349684e-07 0.0000000e+00 
-7.3930158e-07 -1.5890515e-07 0.0000000e+00 
-7.1570821e-07 -9.2850714e-09 0.0000000e+00 
-6.9393661e-07 2.4260072e-07 0.0000000e+00 
-6.8719311e-07 7.5377464e-08 0.0000000e+00 
-6.8752018e-07 -8.9631570e-08 0.0000000e+00 
-6.9373846e-07 -2.3828308e-07 0.0000000e+00 
-6.4144876e-07 1.5390830e-07 0.0000000e+00 
-6.3818493e-07 -6.8398207e-09 0.0000000e+00 
-6.4126533e-07 -1.4955957e-07 0.0000000e+00 
-5.9911110e-07 2.2786595e-07 0.0000000e+00 
-5.9211476e-07 7.0860096e-08 0.0000000e+00 
-5.9235737e-07 -8.4329393e-08 0.0000000e+00 
-5.9882757e-07 -2.2389786e-07 0.0000000e+00 
-5.4940949e-07 1.4397146e-07 0.0000000e+00 
-5.4601361e-07 -6.5054238e-09 0.0000000e+00 
-5.4915677e-07 -1.3976184e-07 0.0000000e+00 
-5.1028508e-07 2.1241587e-07 0.0000000e+00 
-5.0295591e-07 6.6043825e-08 0.0000000e+00 
-5.0326247e-07 -7.8820548e-08 0.0000000e+00 
-5.0996545e-07 -2.0901577e-07 0.0000000e+00 
-4.6346810e-07 1.3360017e-07 0.0000000e+00 
-4.5986141e-07 -6.0931025e-09 0.0000000e+00 
-4.6399060e-07 -1.4568653e-07 0.0000000e+00 
-4.2770967e-07 1.9623334e-07 0.0000000e+00 
-4.2005064e-07 6.0957959e-08 0.0000000e+00 
-4.2034071e-07 -7.2755604e-08 0.0000000e+00 
-4.2721712e-07 -1.9286348e-07 0.0000000e+00 
-3.8393867e-07 1.2280657e-07 0.0000000e+00 
-3.8016051e-07 -5.6440443e-09 0.0000000e+00 
-3.8452825e-07 -1.3407725e-07 0.0000000e+00 
-3.5178388e-07 1.7927159e-07 0.0000000e+00 
-3.4370387e-07 5.5611494e-08 0.0000000e+00 
-3.4401501e-07 -6.6478378e-08 0.0000000e+00 
-3.5125572e-07 -1.7629799e-07 0.0000000e+00 
-3.1650444e-07 1.0814940e-07 0.0000000e+00 
-3.0719033e-07 -5.1661466e-09 0.0000000e+00 
-3.1173067e-07 -1.2185265e-07 0.0000000e+00 
-2.8257472e-07 1.6200086e-07 0.0000000e+00 
-2.7419790e-07 5.0177160e-08 0.0000000e+00 
-2.7453467e-07 -5.9942501e-08 0.0000000e+00 
-2.8204781e-07 -1.5900758e-07 0.0000000e+00 
-2.5103216e-07 1.0149205e-07 0.0000000e+00 
-2.4113854e-07 -4.6837805e-09 0.0000000e+00 
-2.4590562e-07 -1.0919481e-07 0.0000000e+00 
-2.1955033e-07 4.6728839e-08 0.0000000e+00 
-2.2045322e-07 1.4366412e-07 0.0000000e+00 
-2.1217109e-07 -5.3057729e-08 0.0000000e+00 
-2.2013337e-07 -1.4070035e-07 0.0000000e+00 
-1.9207602e-07 8.8558217e-08 0.0000000e+00 
-1.9040715e-07 -1.1418069e-09 0.0000000e+00 
-1.8953311e-07 -8.6624482e-08 0.0000000e+00 
-1.6405289e-07 4.1599193e-08 0.0000000e+00 
-1.6580471e-07 1.2488340e-07 0.0000000e+00 
-1.5950654e-07 -4.0028773e-08 0.0000000e+00 
-1.4840948e-07 8.2482750e-08 0.0000000e+00 
-1.6534329e-07 -1.2245623e-07 0.0000000e+00 
-1.3847107e-07 4.6605688e-09 0.0000000e+00 
-1.3872594e-07 -7.6688551e-08 0.0000000e+00 
-1.1742644e-07 3.9970509e-08 0.0000000e+00 
-1.1857552e-07 1.0534519e-07 0.0000000e+00 
-1.1180366e-07 -3.4088998e-08 0.0000000e+00 
-1.1832548e-07 -1.0291295e-07 0.0000000e+00 
-1.0073342e-07 7.0693716e-08 0.0000000e+00 
-9.4096599e-08 3.7541881e-09 0.0000000e+00 
-9.4741061e-08 -5.9749233e-08 0.0000000e+00 
-7.6730764e-08 3.3231000e-08 0.0000000e+00 
-7.9342456e-08 8.4771251e-08 0.0000000e+00 
-7.2700473e-08 -2.4935048e-08 0.0000000e+00 
-7.9164408e-08 -8.3163172e-08 0.0000000e+00 
-6.4051875e-08 5.6595063e-08 0.0000000e+00 
-5.7299101e-08 3.3382235e-09 0.0000000e+00 
-5.9112704e-08 -4.7435243e-08 0.0000000e+00 
-4.4067530e-08 2.5645440e-08 0.0000000e+00 
-4.8546696e-08 6.3671941e-08 0.0000000e+00 
-4.0804743e-08 -1.8518401e-08 0.0000000e+00 
-4.8159155e-08 -6.2475706e-08 0.0000000e+00 
-3.3221411e-08 4.0044025e-08 0.0000000e+00 
-2.7070197e-08 2.9826601e-09 0.0000000e+00 
-3.1432528e-08 -3.4044170e-08 0.0000000e+00 
-1.8149375e-08 1.6586622e-08 0.0000000e+00 
-2.6273781e-08 4.1471498e-08 0.0000000e+00 
-1.7390620e-08 -1.2185028e-08 0.0000000e+00 
-1.6304840e-08 2.5093305e-08 0.0000000e+00 
-2.5727044e-08 -4.0927588e-08 0.0000000e+00 
-8.3361247e-09 2.1461950e-09 0.0000000e+00 
-1.0183128e-08 -1.7724181e-08 0.0000000e+00 
-5.6868052e-09 1.0398487e-08 0.0000000e+00 
-1.0515301e-08 1.9146071e-08 0.0000000e+00 
-2.0191588e-09 -3.4089398e-09 0.0000000e+00 
-1.0835643e-08 -1.8884322e-08 0.0000000e+00 
0.0000000e+00 0.0000000e+00 0.0000000e+00 
0.0000000e+00 0.0000000e+00 0.0000000e+00 
0.0000000e+00 0.0000000e+00 0.0000000e+00 
0.0000000e+00 0.0000000e+00 0.0000000e+00 
0.0000000e+00 0.0000000e+00 0.0000000e+00 
0.0000000e+00 0.0000000e+00 0.0000000e+00 
REACTION 3 340  float
-1.1838860e-06 -1.6882492e-06 0.0000000e+00 
-5.2913806e-06 -7.0397149e-08 0.0000000e+00 
1.8877812e-06 -1.8009953e-06 0.0000000e+00 
4.4365552e-06 -2.1032922e-06 0.0000000e+00 
-7.2682195e-07 2.3717791e-06 0.0000000e+00 
-6.6085016e-07 1.5326711e-06 0.0000000e+00 
-1.5880021e-06 -1.0575819e-06 0.0000000e+00 
2.2613226e-07 1.0539175e-07 0.0000000e+00 
3.8558046e-06 -2.5864570e-06 0.0000000e+00 
1.2253852e-06 -2.9284728e-08 0.0000000e+00 
1.6478847e-06 3.3451499e-07 0.0000000e+00 
-3.3997096e-06 2.4840119e-07 0.0000000e+00 
-4.8675242e-06 -3.3500460e-06 0.0000000e+00 
2.3267535e-06 -4.2407019e-06 0.0000000e+00 
2.1815711e-06 1.7892920e-07 0.0000000e+00 
-2.5510169e-06 4.5621905e-06 0.0000000e+00 
1.5001906e-06 -1.0977302e-06 0.0000000e+00 
-2.5595746e-06 2.8190138e-06 0.0000000e+00 
-3.9194201e-06 7.7856049e-07 0.0000000e+00 
1.0232142e-06 7.6670352e-07 0.0000000e+00 
4.7188892e-06 -1.2740884e-06 0.0000000e+00 
2.5231427e-06 -2.0235520e-06 0.0000000e+00 
-2.3403838e-06 -4.2958827e-06 0.0000000e+00 
-3.9323895e-06 8.7210901e-07 0.0000000e+00 
6.4936188e-07 -3.8794371e-07 0.0000000e+00 
-2.5580832e-07 -7.4703905e-07 0.0000000e+00 
-1.1140659e-06 -6.5635328e-07 0.0000000e+00 
-1.3836635e-07 6.1404535e-07 0.0000000e+00 
-1.2324405e-06 7.0528969e-08 0.0000000e+00 
2.6191997e-06 -3.7476190e-07 0.0000000e+00 
-2.2728659e-06 1.7606004e-06 0.0000000e+00 
1.3241846e-06 2.2865481e-07 0.0000000e+00 
2.9027617e-06 -1.3006750e-06 0.0000000e+00 
-1.1103947e-06 -1.6516035e-06 0.0000000e+00 
-2.6711132e-06 -8.9068550e-08 0.0000000e+00 
2.3937259e-06 6.3087225e-07 0.0000000e+00 
1.8877741e-06 4.8264916e-08 0.0000000e+00 
3.5947346e-06 -1.4193586e-06 0.0000000e+00 
1.6844622e-06 -1.1670844e-06 0.0000000e+00 
-1.1564440e-06 -5.5827445e-07 0.0000000e+00 
-2.1403034e-06 -1.2627087e-06 0.0000000e+00 
-3.0570725e-06 1.5686246e-06 0.0000000e+00 
-3.8824084e-08 4.4483912e-07 0.0000000e+00 
1.5997458e-06 -1.2809489e-06 0.0000000e+00 
2.1679464e-06 3.2297191e-07 0.0000000e+00 
1.3753692e-06 -1.5535032e-06 0.0000000e+00 
-5.5141578e-07 1.2600248e-06 0.0000000e+00 
-4.6404743e-06 -5.8065775e-06 0.0000000e+00 
1.0620608e-06 -1.8755558e-06 0.0000000e+00 
-1.2415148e-06 4.4939448e-08 0.0000000e+00 
7.4129605e-07 -1.8565140e-06 0.0000000e+00 
1.9639751e-06 3.8948343e-08 0.0000000e+00 
2.5513472e-07 -1.1357919e-06 0.0000000e+00 
1.2623420e-06 1.8684934e-06 0.0000000e+00 
7.2234889e-07 9.0191315e-07 0.0000000e+00 
-2.0646846e-06 1.7193695e-06 0.0000000e+00 
1.9100626e-06 1.9536901e-06 0.0000000e+00 
-4.8679851e-07 -2.0460132e-07 0.0000000e+00 
-2.0901570e-07 -5.8687203e-07 0.0000000e+00 
2.9711205e-06 -3.9145684e-07 0.0000000e+00 
-1.5912160e-06 5.4574048e-07 0.0000000e+00 
-9.3457447e-07 -1.3952288e-06 0.0000000e+00 
4.6425043e-08 -2.9150560e-06 0.0000000e+00 
-2.2574768e-06 -1.6042034e-07 0.0000000e+00 
-4.9055785e-07 -9.7499412e-07 0.0000000e+00 
1.3462263e-06 -4.9842004e-07 0.0000000e+00 
2.5568947e-06 -2.0889058e-06 0.0000000e+00 
-2.2698844e-06 -2.6270627e-06 0.0000000e+00 
7.8885842e-07 1.1059283e-06 0.0000000e+00 
-7.7507548e-07 -8.0905374e-07 0.0000000e+00 
5.4049747e-07 -6.5031429e-09 0.0000000e+00 
-1.5092319e-06 -2.6424580e-06 0.0000000e+00 
1.9607226e-06 8.1040736e-07 0.0000000e+00 
-1.0542103e-06 -1.5258993e-07 0.0000000e+00 
-1.9299122e-07 -4.3438106e-07 0.0000000e+00 
1.1418206e-06 -1.6551824e-06 0.0000000e+00 
-4.4800049e-07 1.0982901e-06 0.0000000e+00 
-2.1550024e-06 -6.6563331e-07 0.0000000e+00 
2.6083057e-06 1.1398145e-06 0.0000000e+00 
3.0676296e-07 -2.1695585e-06 0.0000000e+00 
-3.8773555e-07 -2.5643435e-06 0.0000000e+00 
1.0492618e-06 -1.7734623e-06 0.0000000e+00 
-3.0757033e-06 -1.7667156e-06 0.0000000e+00 
-3.2122961e-07 -3.2322591e-06 0.0000000e+00 
3.0843233e-07 -5.0364338e-06 0.0000000e+00 
1.8942837e-06 -5.1594566e-07 0.0000000e+00 
2.4317480e-06 -1.6707770e-06 0.0000000e+00 
-1.7058925e-06 -2.1086580e-06 0.0000000e+00 
-1.4666454e-06 -1.6355143e-06 0.0000000e+00 
-2.7193057e-06 -1.5097619e-06 0.0000000e+00 
-2.9010955e-06 -1.4211298e-06 0.0000000e+00 
3.8225057e-06 1.4777222e-06 0.0000000e+00 
1.0409567e-06 -2.3385080e-06 0.0000000e+00 
2.6679804e-06 1.2570862e-06 0.0000000e+00 
3.3211866e-06 -3.0980739e-06 0.0000000e+00 
-1.3357356e-06 -2.6074035e-06 0.0000000e+00 
-3.6049050e-06 -5.0064494e-07 0.0000000e+00 
-1.1616652e-06 -2.0870050e-06 0.0000000e+00 
1.0849319e-06 -1.7206644e-06 0.0000000e+00 
1.4680547e-06 -3.0592937e-06 0.0000000e+00 
2.1958037e-06 -2.4259562e-06 0.0000000e+00 
-1.3941745e-06 8.9117322e-07 0.0000000e+00 
-5.8400883e-06 6.5044753e-07 0.0000000e+00 
-1.7080971e-06 -3.3893484e-06 0.0000000e+00 
1.8622775e-06 -2.7665828e-06 0.0000000e+00 
3.1083973e-06 8.6433755e-07 0.0000000e+00 
1.2033886e-06 -2.3781104e-06 0.0000000e+00 
2.4298049e-06 -1.3992010e-06 0.0000000e+00 