# vtk DataFile Version 4.0
vtk output
ASCII
DATASET UNSTRUCTURED_GRID
POINTS 340 float
1.0000000e+00 1.0000000e+01 0.0000000e+00 
1.0000000e+00 9.8000002e+00 0.0000000e+00 
8.0000001e-01 1.0000000e+01 0.0000000e+00 
7.2964472e-01 9.8093147e+00 0.0000000e+00 
8.4182751e-01 9.6382694e+00 0.0000000e+00 
6.0000002e-01 1.0000000e+01 0.0000000e+00 
1.0000000e+00 9.6000004e+00 0.0000000e+00 
5.0000000e-01 9.8267946e+00 0.0000000e+00 
6.3604087e-01 9.5908260e+00 0.0000000e+00 
8.4263843e-01 9.4342804e+00 0.0000000e+00 
4.0000001e-01 1.0000000e+01 0.0000000e+00 
1.0000000e+00 9.3999996e+00 0.0000000e+00 
4.0534732e-01 9.6340141e+00 0.0000000e+00 
2.7881753e-01 9.8140564e+00 0.0000000e+00 
6.7177695e-01 9.3303623e+00 0.0000000e+00 
4.9604306e-01 9.4256926e+00 0.0000000e+00 
8.4713864e-01 9.2343493e+00 0.0000000e+00 
2.0000000e-01 1.0000000e+01 0.0000000e+00 
1.0000000e+00 9.1999998e+00 0.0000000e+00 
3.0000001e-01 9.4803848e+00 0.0000000e+00 
1.6755788e-01 9.6235323e+00 0.0000000e+00 
6.7617422e-01 9.1307087e+00 0.0000000e+00 
4.8477495e-01 9.2195473e+00 0.0000000e+00 
8.5255039e-01 9.0345669e+00 0.0000000e+00 
0.0000000e+00 1.0000000e+01 0.0000000e+00 
1.0000000e+00 9.0000000e+00 0.0000000e+00 
0.0000000e+00 9.8000002e+00 0.0000000e+00 
2.2804837e-01 9.2825413e+00 0.0000000e+00 
0.0000000e+00 9.6000004e+00 0.0000000e+00 
5.0581944e-01 9.0259790e+00 0.0000000e+00 
3.3078760e-01 9.1219988e+00 0.0000000e+00 
6.8160146e-01 8.9308100e+00 0.0000000e+00 
0.0000000e+00 9.3999996e+00 0.0000000e+00 
8.5683817e-01 8.8346405e+00 0.0000000e+00 
1.0000000e+00 8.8000002e+00 0.0000000e+00 
1.7320508e-01 9.1000004e+00 0.0000000e+00 
3.3639798e-01 8.9224386e+00 0.0000000e+00 
5.1166874e-01 8.8261728e+00 0.0000000e+00 
0.0000000e+00 9.1999998e+00 0.0000000e+00 
6.8573916e-01 8.7312880e+00 0.0000000e+00 
1.7320508e-01 8.8999996e+00 0.0000000e+00 
1.0000000e+00 8.6000004e+00 0.0000000e+00 
0.0000000e+00 9.0000000e+00 0.0000000e+00 
3.4077987e-01 8.7225189e+00 0.0000000e+00 
5.1553297e-01 8.6263428e+00 0.0000000e+00 
7.3636049e-01 8.5193882e+00 0.0000000e+00 
0.0000000e+00 8.8000002e+00 0.0000000e+00 
1.0000000e+00 8.3999996e+00 0.0000000e+00 
1.7061394e-01 8.6176825e+00 0.0000000e+00 
3.4670532e-01 8.5231361e+00 0.0000000e+00 
5.2180642e-01 8.4266043e+00 0.0000000e+00 
7.4737626e-01 8.3175163e+00 0.0000000e+00 
0.0000000e+00 8.6000004e+00 0.0000000e+00 
1.7467257e-01 8.4178057e+00 0.0000000e+00 
3.5083947e-01 8.3232317e+00 0.0000000e+00 
1.0000000e+00 8.1999998e+00 0.0000000e+00 
5.2511263e-01 8.2268429e+00 0.0000000e+00 
0.0000000e+00 8.3999996e+00 0.0000000e+00 
7.5983411e-01 8.1149063e+00 0.0000000e+00 
1.8103610e-01 8.2179594e+00 0.0000000e+00 
3.5745192e-01 8.1241884e+00 0.0000000e+00 
1.0000000e+00 8.0000000e+00 0.0000000e+00 
5.3222626e-01 8.0272846e+00 0.0000000e+00 
0.0000000e+00 8.1999998e+00 0.0000000e+00 
7.5571120e-01 7.9173551e+00 0.0000000e+00 
1.8344399e-01 8.0151854e+00 0.0000000e+00 
3.6146736e-01 7.9243879e+00 0.0000000e+00 
1.0000000e+00 7.8000002e+00 0.0000000e+00 
5.3374660e-01 7.8279252e+00 0.0000000e+00 
0.0000000e+00 8.0000000e+00 0.0000000e+00 
7.6374203e-01 7.7163153e+00 0.0000000e+00 
1.9437179e-01 7.8156433e+00 0.0000000e+00 
3.7308612e-01 7.7272835e+00 0.0000000e+00 
1.0000000e+00 7.5999999e+00 0.0000000e+00 
5.4554766e-01 7.6299233e+00 0.0000000e+00 
0.0000000e+00 7.8000002e+00 0.0000000e+00 
7.4744660e-01 7.5226874e+00 0.0000000e+00 
2.0444529e-01 7.6206732e+00 0.0000000e+00 
3.8187346e-01 7.5294333e+00 0.0000000e+00 
0.0000000e+00 7.5999999e+00 0.0000000e+00 
1.0000000e+00 7.4000001e+00 0.0000000e+00 
5.2131432e-01 7.4393973e+00 0.0000000e+00 
1.9729473e-01 7.4537926e+00 0.0000000e+00 
7.0935732e-01 7.3327885e+00 0.0000000e+00 
3.5328710e-01 7.3320160e+00 0.0000000e+00 
8.4863865e-01 7.2198439e+00 0.0000000e+00 
0.0000000e+00 7.4000001e+00 0.0000000e+00 
5.3123343e-01 7.2420211e+00 0.0000000e+00 
1.0000000e+00 7.1999998e+00 0.0000000e+00 
1.7718045e-01 7.2569203e+00 0.0000000e+00 
6.6225648e-01 7.1541371e+00 0.0000000e+00 
3.4724638e-01 7.1689978e+00 0.0000000e+00 
8.3611876e-01 7.0656843e+00 0.0000000e+00 
0.0000000e+00 7.1999998e+00 0.0000000e+00 
4.9535713e-01 7.0473509e+00 0.0000000e+00 
1.0000000e+00 7.0000000e+00 0.0000000e+00 
1.7387313e-01 7.0734706e+00 0.0000000e+00 
6.6474640e-01 6.9560146e+00 0.0000000e+00 
3.4690949e-01 6.9773350e+00 0.0000000e+00 
8.4107113e-01 6.8641090e+00 0.0000000e+00 
0.0000000e+00 7.0000000e+00 0.0000000e+00 
5.2873749e-01 6.8578229e+00 0.0000000e+00 
1.0000000e+00 6.8000002e+00 0.0000000e+00 
1.7445621e-01 6.8769779e+00 0.0000000e+00 
6.7736709e-01 6.7575765e+00 0.0000000e+00 
3.4595537e-01 6.7778087e+00 0.0000000e+00 
8.3462298e-01 6.6689000e+00 0.0000000e+00 
0.0000000e+00 6.8000002e+00 0.0000000e+00 
5.0501287e-01 6.6597099e+00 0.0000000e+00 
1.0000000e+00 6.5999999e+00 0.0000000e+00 
1.8097465e-01 6.6789780e+00 0.0000000e+00 
6.6962856e-01 6.5595260e+00 0.0000000e+00 
3.2066780e-01 6.5871606e+00 0.0000000e+00 
8.3965176e-01 6.4710097e+00 0.0000000e+00 
0.0000000e+00 6.5999999e+00 0.0000000e+00 
4.8932999e-01 6.4914999e+00 0.0000000e+00 
1.0000000e+00 6.4000001e+00 0.0000000e+00 
1.4997987e-01 6.4839683e+00 0.0000000e+00 
6.6350561e-01 6.3954086e+00 0.0000000e+00 
3.2280096e-01 6.3877153e+00 0.0000000e+00 
8.3153027e-01 6.2889266e+00 0.0000000e+00 
0.0000000e+00 6.4000001e+00 0.0000000e+00 
4.9695736e-01 6.2927222e+00 0.0000000e+00 
1.0000000e+00 6.1999998e+00 0.0000000e+00 
1.6071729e-01 6.2864423e+00 0.0000000e+00 
6.5358984e-01 6.1999998e+00 0.0000000e+00 
3.3329538e-01 6.1896143e+00 0.0000000e+00 
8.1998920e-01 6.0895286e+00 0.0000000e+00 
0.0000000e+00 6.1999998e+00 0.0000000e+00 
4.8038477e-01 6.0999999e+00 0.0000000e+00 
1.7059118e-01 6.0888028e+00 0.0000000e+00 
1.0000000e+00 6.0000000e+00 0.0000000e+00 
6.5358984e-01 6.0000000e+00 0.0000000e+00 
3.0717969e-01 6.0000000e+00 0.0000000e+00 
8.2679492e-01 5.9000001e+00 0.0000000e+00 
0.0000000e+00 6.0000000e+00 0.0000000e+00 
4.8038477e-01 5.9000001e+00 0.0000000e+00 
1.3397460e-01 5.9000001e+00 0.0000000e+00 
1.0000000e+00 5.8000002e+00 0.0000000e+00 
6.5358984e-01 5.8000002e+00 0.0000000e+00 
3.0717969e-01 5.8000002e+00 0.0000000e+00 
8.2679492e-01 5.6999998e+00 0.0000000e+00 
0.0000000e+00 5.8000002e+00 0.0000000e+00 
4.8038477e-01 5.6999998e+00 0.0000000e+00 
1.3397460e-01 5.6999998e+00 0.0000000e+00 
1.0000000e+00 5.5999999e+00 0.0000000e+00 
6.5358984e-01 5.5999999e+00 0.0000000e+00 
3.2231969e-01 5.6385756e+00 0.0000000e+00 
8.2679492e-01 5.5000000e+00 0.0000000e+00 
0.0000000e+00 5.5999999e+00 0.0000000e+00 
4.8038477e-01 5.5000000e+00 0.0000000e+00 
1.7059118e-01 5.5111971e+00 0.0000000e+00 
1.0000000e+00 5.4000001e+00 0.0000000e+00 
6.5358984e-01 5.4000001e+00 0.0000000e+00 
3.3329538e-01 5.3896141e+00 0.0000000e+00 
8.2679492e-01 5.3000002e+00 0.0000000e+00 
0.0000000e+00 5.4000001e+00 0.0000000e+00 
4.8038477e-01 5.3000002e+00 0.0000000e+00 
1.7059118e-01 5.2888031e+00 0.0000000e+00 
1.0000000e+00 5.1999998e+00 0.0000000e+00 
6.5358984e-01 5.1999998e+00 0.0000000e+00 
3.0717969e-01 5.1999998e+00 0.0000000e+00 
8.2679492e-01 5.0999999e+00 0.0000000e+00 
0.0000000e+00 5.1999998e+00 0.0000000e+00 
4.8038477e-01 5.0999999e+00 0.0000000e+00 
1.3397460e-01 5.0999999e+00 0.0000000e+00 
1.0000000e+00 5.0000000e+00 0.0000000e+00 
6.5358984e-01 5.0000000e+00 0.0000000e+00 
3.0717969e-01 5.0000000e+00 0.0000000e+00 
0.0000000e+00 5.0000000e+00 0.0000000e+00 
8.2679492e-01 4.9000001e+00 0.0000000e+00 
4.8038477e-01 4.9000001e+00 0.0000000e+00 
1.3397460e-01 4.9000001e+00 0.0000000e+00 
1.0000000e+00 4.8000002e+00 0.0000000e+00 
6.5358984e-01 4.8000002e+00 0.0000000e+00 
3.0717969e-01 4.8000002e+00 0.0000000e+00 
0.0000000e+00 4.8000002e+00 0.0000000e+00 
8.2679492e-01 4.6999998e+00 0.0000000e+00 
4.8038477e-01 4.6999998e+00 0.0000000e+00 
1.3397460e-01 4.6999998e+00 0.0000000e+00 
1.0000000e+00 4.5999999e+00 0.0000000e+00 
6.5358984e-01 4.5999999e+00 0.0000000e+00 
3.0717969e-01 4.5999999e+00 0.0000000e+00 
0.0000000e+00 4.5999999e+00 0.0000000e+00 
8.2679492e-01 4.5000000e+00 0.0000000e+00 
4.8038477e-01 4.5000000e+00 0.0000000e+00 
1.3397460e-01 4.5000000e+00 0.0000000e+00 
1.0000000e+00 4.4000001e+00 0.0000000e+00 
6.5358984e-01 4.4000001e+00 0.0000000e+00 
3.0717969e-01 4.4000001e+00 0.0000000e+00 
8.3046603e-01 4.3165317e+00 0.0000000e+00 
0.0000000e+00 4.4000001e+00 0.0000000e+00 
4.8038477e-01 4.3000002e+00 0.0000000e+00 
1.7059118e-01 4.3111973e+00 0.0000000e+00 
6.6123927e-01 4.2184782e+00 0.0000000e+00 
1.0000000e+00 4.1999998e+00 0.0000000e+00 
3.3329538e-01 4.2103858e+00 0.0000000e+00 
8.3268768e-01 4.1176395e+00 0.0000000e+00 
0.0000000e+00 4.1999998e+00 0.0000000e+00 
4.9695736e-01 4.1072779e+00 0.0000000e+00 
1.6071729e-01 4.1135573e+00 0.0000000e+00 
1.0000000e+00 4.0000000e+00 0.0000000e+00 
3.2280096e-01 4.0122848e+00 0.0000000e+00 
6.4947557e-01 3.9632084e+00 0.0000000e+00 
8.4590596e-01 3.9203768e+00 0.0000000e+00 
0.0000000e+00 4.0000000e+00 0.0000000e+00 
4.7627035e-01 3.9377375e+00 0.0000000e+00 
1.4997987e-01 3.9160316e+00 0.0000000e+00 
1.0000000e+00 3.8000000e+00 0.0000000e+00 
3.2066780e-01 3.8128395e+00 0.0000000e+00 
5.1165128e-01 3.7661045e+00 0.0000000e+00 
0.0000000e+00 3.8000000e+00 0.0000000e+00 
7.4880123e-01 3.7184730e+00 0.0000000e+00 
1.8097465e-01 3.7210221e+00 0.0000000e+00 
1.0000000e+00 3.5999999e+00 0.0000000e+00 
3.4595537e-01 3.6221914e+00 0.0000000e+00 
5.2873749e-01 3.5421770e+00 0.0000000e+00 
0.0000000e+00 3.5999999e+00 0.0000000e+00 
1.7445621e-01 3.5230222e+00 0.0000000e+00 
7.1247655e-01 3.4632580e+00 0.0000000e+00 
1.0000000e+00 3.4000001e+00 0.0000000e+00 
3.4690949e-01 3.4226651e+00 0.0000000e+00 
0.0000000e+00 3.4000001e+00 0.0000000e+00 
5.1989859e-01 3.3223066e+00 0.0000000e+00 
8.2679492e-01 3.3000000e+00 0.0000000e+00 
1.7356591e-01 3.3231418e+00 0.0000000e+00 
1.0000000e+00 3.2000000e+00 0.0000000e+00 
3.4647828e-01 3.2226951e+00 0.0000000e+00 
6.5358984e-01 3.2000000e+00 0.0000000e+00 
5.0604391e-01 3.1465836e+00 0.0000000e+00 
[...]
POINT_DATA 340
FIELD FieldData 3
DISPLACEMENT 3 340  float
-7.3858337e-07 4.8549424e-08 0.0000000e+00 
-7.1929367e-07 4.8540095e-08 0.0000000e+00 
-7.3858024e-07 2.9262008e-08 0.0000000e+00 
-7.2018804e-07 2.2469232e-08 0.0000000e+00 
-7.0368486e-07 3.3274898e-08 0.0000000e+00 
-7.3857956e-07 9.9782991e-09 0.0000000e+00 
-6.9999555e-07 4.8528960e-08 0.0000000e+00 
-7.2187765e-07 3.3404954e-10 0.0000000e+00 
-6.9910413e-07 1.3436850e-08 0.0000000e+00 
-6.8399464e-07 3.3335194e-08 0.0000000e+00 
-7.3858678e-07 -9.3029264e-09 0.0000000e+00 
-6.8069318e-07 4.8507761e-08 0.0000000e+00 
-7.0327940e-07 -8.7904786e-09 0.0000000e+00 
-7.2066052e-07 -2.0987677e-08 0.0000000e+00 
-6.7395814e-07 1.6862325e-08 0.0000000e+00 
-6.8316456e-07 -5.6037907e-11 0.0000000e+00 
-6.6469528e-07 3.3741468e-08 0.0000000e+00 
-7.3860110e-07 -2.8587895e-08 0.0000000e+00 
-6.6139160e-07 4.8472078e-08 0.0000000e+00 
-6.8845611e-07 -1.8939325e-08 0.0000000e+00 
-7.0228515e-07 -3.1713711e-08 0.0000000e+00 
-6.5468367e-07 1.7266753e-08 0.0000000e+00 
-6.6326089e-07 -1.1428023e-09 0.0000000e+00 
-6.4541604e-07 3.4223127e-08 0.0000000e+00 
-7.3861742e-07 -4.7876380e-08 0.0000000e+00 
-6.4209786e-07 4.8417363e-08 0.0000000e+00 
-7.1932692e-07 -4.7876497e-08 0.0000000e+00 
-6.6935883e-07 -2.5862821e-08 0.0000000e+00 
-7.0003006e-07 -4.7874092e-08 0.0000000e+00 
-6.4457316e-07 8.7592211e-10 0.0000000e+00 
-6.5384978e-07 -1.5961422e-08 0.0000000e+00 
-6.3539505e-07 1.7761213e-08 0.0000000e+00 
-6.8072524e-07 -4.7863434e-08 0.0000000e+00 
-6.2613873e-07 3.4581337e-08 0.0000000e+00 
-6.2283118e-07 4.8335345e-08 0.0000000e+00 
-6.5173833e-07 -3.1125825e-08 0.0000000e+00 
-6.3458771e-07 -1.5406844e-08 0.0000000e+00 
-6.2530080e-07 1.4300375e-09 0.0000000e+00 
-6.6141951e-07 -4.7842136e-08 0.0000000e+00 
-6.1616601e-07 1.8122975e-08 0.0000000e+00 
-6.3243408e-07 -3.1094526e-08 0.0000000e+00 
-6.0357667e-07 4.8235851e-08 0.0000000e+00 
-6.4210531e-07 -4.7802249e-08 0.0000000e+00 
-6.1531620e-07 -1.4968093e-08 0.0000000e+00 
-6.0605356e-07 1.7912083e-09 0.0000000e+00 
-5.9578383e-07 2.2918062e-08 0.0000000e+00 
-6.2281339e-07 -4.7739544e-08 0.0000000e+00 
-5.8437195e-07 4.8120480e-08 0.0000000e+00 
-6.0523496e-07 -3.1279075e-08 0.0000000e+00 
-5.9612836e-07 -1.4379379e-08 0.0000000e+00 
-5.8685339e-07 2.3764419e-09 0.0000000e+00 
-5.7640847e-07 2.3902931e-08 0.0000000e+00 
-6.0355922e-07 -4.7657412e-08 0.0000000e+00 
-5.8602700e-07 -3.0826907e-08 0.0000000e+00 
-5.7693677e-07 -1.3957798e-08 0.0000000e+00 
-5.6521259e-07 4.7980517e-08 0.0000000e+00 
-5.6769949e-07 2.6753639e-09 0.0000000e+00 
-5.8435000e-07 -4.7552636e-08 0.0000000e+00 
-5.5701605e-07 2.5009994e-08 0.0000000e+00 
-5.6687060e-07 -3.0142552e-08 0.0000000e+00 
-5.5788007e-07 -1.3295977e-08 0.0000000e+00 
-5.4611132e-07 4.7815046e-08 0.0000000e+00 
-5.4862113e-07 3.3329171e-09 0.0000000e+00 
-5.6519104e-07 -4.7426475e-08 0.0000000e+00 
-5.3816626e-07 2.4525649e-08 0.0000000e+00 
-5.4749302e-07 -2.9823521e-08 0.0000000e+00 
-5.3881189e-07 -1.2877792e-08 0.0000000e+00 
-5.2707674e-07 4.7629079e-08 0.0000000e+00 
-5.2962667e-07 3.4563044e-09 0.0000000e+00 
-5.4609075e-07 -4.7278320e-08 0.0000000e+00 
-5.1905687e-07 2.5181519e-08 0.0000000e+00 
-5.2848890e-07 -2.8684140e-08 0.0000000e+00 
-5.2006772e-07 -1.1737157e-08 0.0000000e+00 
-5.0811991e-07 4.7417398e-08 0.0000000e+00 
-5.1083509e-07 4.5445381e-09 0.0000000e+00 
-5.2705838e-07 -4.7109950e-08 0.0000000e+00 
-5.0072362e-07 2.3529543e-08 0.0000000e+00 
-5.0998989e-07 -2.7620173e-08 0.0000000e+00 
-5.0132974e-07 -1.0867362e-08 0.0000000e+00 
-5.0810269e-07 -4.6920960e-08 0.0000000e+00 
-4.8923965e-07 4.7191278e-08 0.0000000e+00 
-4.9282852e-07 2.2355431e-09 0.0000000e+00 
-4.9422340e-07 -2.8189731e-08 0.0000000e+00 
-4.8281845e-07 1.9835229e-08 0.0000000e+00 
-4.8272574e-07 -1.3496108e-08 0.0000000e+00 
-4.7225714e-07 3.2797697e-08 0.0000000e+00 
-4.8922959e-07 -4.6704869e-08 0.0000000e+00 
-4.7426826e-07 3.1435679e-09 0.0000000e+00 
-4.7046936e-07 4.6933064e-08 0.0000000e+00 
-4.7571143e-07 -2.9934554e-08 0.0000000e+00 
-4.6604816e-07 1.5343680e-08 0.0000000e+00 
-4.6743347e-07 -1.4007218e-08 0.0000000e+00 
-4.5783247e-07 3.1476972e-08 0.0000000e+00 
-4.7045125e-07 -4.6460855e-08 0.0000000e+00 
-4.5605347e-07 -2.0837250e-10 0.0000000e+00 
-4.5179445e-07 4.6646580e-08 0.0000000e+00 
-4.5854753e-07 -3.0093350e-08 0.0000000e+00 
-4.4756288e-07 1.5479571e-08 0.0000000e+00 
-4.4954137e-07 -1.3959711e-08 0.0000000e+00 
-4.3908668e-07 3.1726987e-08 0.0000000e+00 
-4.5177845e-07 -4.6193882e-08 0.0000000e+00 
-4.3842599e-07 2.8713374e-09 0.0000000e+00 
-4.3323701e-07 4.6335344e-08 0.0000000e+00 
-4.4026316e-07 -2.9863234e-08 0.0000000e+00 
-4.2916821e-07 1.6529201e-08 0.0000000e+00 
-4.3102929e-07 -1.3964936e-08 0.0000000e+00 
-4.2104296e-07 3.0912510e-08 0.0000000e+00 
-4.3321995e-07 -4.5903953e-08 0.0000000e+00 
-4.2011780e-07 6.7115535e-10 0.0000000e+00 
-4.1480271e-07 4.6002533e-08 0.0000000e+00 
-4.2195532e-07 -2.9069984e-08 0.0000000e+00 
-4.1092980e-07 1.5701605e-08 0.0000000e+00 
-4.1346371e-07 -1.6193633e-08 0.0000000e+00 
-4.0288558e-07 3.1138455e-08 0.0000000e+00 
-4.1478862e-07 -4.5595765e-08 0.0000000e+00 
-4.0467219e-07 -7.6756768e-10 0.0000000e+00 
-3.9650337e-07 4.5643716e-08 0.0000000e+00 
-4.0406297e-07 -3.1695510e-08 0.0000000e+00 
-3.9591521e-07 1.5043000e-08 0.0000000e+00 
-3.9521157e-07 -1.5882193e-08 0.0000000e+00 
-3.8629398e-07 3.0173243e-08 0.0000000e+00 
-3.9648427e-07 -4.5250122e-08 0.0000000e+00 
-3.8654753e-07 -7.8829582e-11 0.0000000e+00 
-3.7834863e-07 4.5264034e-08 0.0000000e+00 
-3.8605941e-07 -3.0485140e-08 0.0000000e+00 
-3.7816622e-07 1.4019326e-08 0.0000000e+00 
-3.7722262e-07 -1.4814849e-08 0.0000000e+00 
-3.6826370e-07 2.8875130e-08 0.0000000e+00 
-3.7832959e-07 -4.4889823e-08 0.0000000e+00 
-3.6911769e-07 -1.5737165e-09 0.0000000e+00 
-3.6818994e-07 -2.9349172e-08 0.0000000e+00 
-3.6034675e-07 4.4866908e-08 0.0000000e+00 
-3.6015203e-07 1.3891437e-08 0.0000000e+00 
-3.6015541e-07 -1.7033567e-08 0.0000000e+00 
-3.5127940e-07 2.9225559e-08 0.0000000e+00 
-3.6032725e-07 -4.4514149e-08 0.0000000e+00 
-3.5118137e-07 -1.5662396e-09 0.0000000e+00 
-3.5128406e-07 -3.2362113e-08 0.0000000e+00 
-3.4250479e-07 4.4441588e-08 0.0000000e+00 
-3.4230004e-07 1.3754062e-08 0.0000000e+00 
-3.4230260e-07 -1.6883813e-08 0.0000000e+00 
-3.3351702e-07 2.8937810e-08 0.0000000e+00 
-3.4247975e-07 -4.4095341e-08 0.0000000e+00 
-3.3341280e-07 -1.5576036e-09 0.0000000e+00 
-3.3352322e-07 -3.2062953e-08 0.0000000e+00 
-3.2483575e-07 4.3995346e-08 0.0000000e+00 
-3.2462097e-07 1.3608807e-08 0.0000000e+00 
-3.2801449e-07 -1.5424433e-08 0.0000000e+00 
-3.1593024e-07 2.8634918e-08 0.0000000e+00 
-3.2481509e-07 -4.3652374e-08 0.0000000e+00 
-3.1582263e-07 -1.5510713e-09 0.0000000e+00 
-3.1689876e-07 -2.8565344e-08 0.0000000e+00 
-3.0734392e-07 4.3529276e-08 0.0000000e+00 
-3.0712130e-07 1.3455710e-08 0.0000000e+00 
-3.0621135e-07 -1.4281649e-08 0.0000000e+00 
-2.9852276e-07 2.8317663e-08 0.0000000e+00 
-3.0733116e-07 -4.3206313e-08 0.0000000e+00 
-2.9841323e-07 -1.5509919e-09 0.0000000e+00 
-2.9754938e-07 -2.8220754e-08 0.0000000e+00 
-2.9003368e-07 4.3042732e-08 0.0000000e+00 
-2.8980159e-07 1.3295692e-08 0.0000000e+00 
-2.8982103e-07 -1.6377797e-08 0.0000000e+00 
-2.8129807e-07 2.7984605e-08 0.0000000e+00 
-2.9003982e-07 -4.2730719e-08 0.0000000e+00 
-2.8119436e-07 -1.5372671e-09 0.0000000e+00 
-2.8135418e-07 -3.1037569e-08 0.0000000e+00 
-2.7290878e-07 4.2532921e-08 0.0000000e+00 
-2.7266955e-07 1.3131470e-08 0.0000000e+00 
-2.7271471e-07 -1.6183202e-08 0.0000000e+00 
-2.7298728e-07 -4.2210562e-08 0.0000000e+00 
-2.6426000e-07 2.7634234e-08 0.0000000e+00 
-2.6416328e-07 -1.5152664e-09 0.0000000e+00 
-2.6437846e-07 -3.0653357e-08 0.0000000e+00 
-2.5597404e-07 4.1993992e-08 0.0000000e+00 
-2.5572334e-07 1.2961564e-08 0.0000000e+00 
-2.5579490e-07 -1.5961309e-08 0.0000000e+00 
-2.5613195e-07 -4.1675790e-08 0.0000000e+00 
-2.4741112e-07 2.7260533e-08 0.0000000e+00 
-2.4731688e-07 -1.4834567e-09 0.0000000e+00 
-2.4757122e-07 -3.0227810e-08 0.0000000e+00 
-2.3923624e-07 4.1413916e-08 0.0000000e+00 
-2.3896621e-07 1.2781880e-08 0.0000000e+00 
-2.3905403e-07 -1.5714164e-08 0.0000000e+00 
-2.3941658e-07 -4.1099504e-08 0.0000000e+00 
-2.3076015e-07 2.6854217e-08 0.0000000e+00 
-2.3065952e-07 -1.4447088e-09 0.0000000e+00 
-2.3093496e-07 -2.9769712e-08 0.0000000e+00 
-2.2271270e-07 4.0775241e-08 0.0000000e+00 
-2.2241193e-07 1.2586393e-08 0.0000000e+00 
-2.2250273e-07 -1.5442406e-08 0.0000000e+00 
-2.1568074e-07 2.6741166e-08 0.0000000e+00 
-2.2290030e-07 -4.0450537e-08 0.0000000e+00 
-2.1421266e-07 -1.4025484e-09 0.0000000e+00 
-2.1537389e-07 -2.6320421e-08 0.0000000e+00 
-2.0758674e-07 1.3002927e-08 0.0000000e+00 
-2.0642540e-07 4.0055035e-08 0.0000000e+00 
-2.0699279e-07 -1.3081593e-08 0.0000000e+00 
-1.9956786e-07 2.6414570e-08 0.0000000e+00 
-2.0660650e-07 -3.9754550e-08 0.0000000e+00 
-1.9858467e-07 -6.8386817e-11 0.0000000e+00 
-1.9936166e-07 -2.6587724e-08 0.0000000e+00 
-1.9042946e-07 3.9227725e-08 0.0000000e+00 
-1.9108003e-07 -1.3616082e-08 0.0000000e+00 
-1.8708752e-07 1.1746230e-08 0.0000000e+00 
-1.8391420e-07 2.6890053e-08 0.0000000e+00 
-1.9052969e-07 -3.8955115e-08 0.0000000e+00 
-1.8509982e-07 -1.6468978e-09 0.0000000e+00 
-1.8362326e-07 -2.6853529e-08 0.0000000e+00 
-1.7476890e-07 3.8249475e-08 0.0000000e+00 
-1.7535318e-07 -1.3451518e-08 0.0000000e+00 
-1.7165516e-07 1.0688618e-09 0.0000000e+00 
-1.7477298e-07 -3.8026926e-08 0.0000000e+00 
-1.6806969e-07 1.8885521e-08 0.0000000e+00 
-1.6836216e-07 -2.3857433e-08 0.0000000e+00 
-1.5943877e-07 3.7276816e-08 0.0000000e+00 
-1.6062563e-07 -1.1260550e-08 0.0000000e+00 
-1.5451880e-07 2.2450783e-09 0.0000000e+00 
-1.5943793e-07 -3.7028233e-08 0.0000000e+00 
-1.5332124e-07 -2.3672163e-08 0.0000000e+00 
-1.4874007e-07 1.5513280e-08 0.0000000e+00 
-1.4463393e-07 3.6250761e-08 0.0000000e+00 
-1.4567307e-07 -1.0868130e-08 0.0000000e+00 
-1.4454218e-07 -3.5903685e-08 0.0000000e+00 
-1.3828280e-07 1.5381695e-09 0.0000000e+00 
-1.3695646e-07 2.3191513e-08 0.0000000e+00 
-1.3858754e-07 -2.2983574e-08 0.0000000e+00 
-1.3017068e-07 3.4965151e-08 0.0000000e+00 
-1.3115614e-07 -1.0548171e-08 0.0000000e+00 
-1.2953871e-07 1.0755890e-08 0.0000000e+00 
-1.2569782e-07 5.7780525e-10 0.0000000e+00 
-1.3013174e-07 -3.4671249e-08 0.0000000e+00 
-1.2274229e-07 2.2325676e-08 0.0000000e+00 
-1.2433698e-07 -2.2182528e-08 0.0000000e+00 
-1.1625703e-07 3.3585454e-08 0.0000000e+00 
-1.1561293e-07 1.0326448e-08 0.0000000e+00 
-1.1536870e-07 -6.5262151e-09 0.0000000e+00 
-1.1622052e-07 -3.3333631e-08 0.0000000e+00 
-1.0907242e-07 2.1382130e-08 0.0000000e+00 
-1.0892979e-07 -2.0842863e-08 0.0000000e+00 
-1.0289344e-07 3.2107707e-08 0.0000000e+00 
-1.0248084e-07 6.0916991e-09 0.0000000e+00 
-1.0148803e-07 -9.7615898e-09 0.0000000e+00 
-1.0291065e-07 -3.1891918e-08 0.0000000e+00 
-9.6003845e-08 2.0431495e-08 0.0000000e+00 
-9.6014425e-08 -2.0210924e-08 0.0000000e+00 
-9.3050438e-08 -1.3508908e-09 0.0000000e+00 
-9.0189147e-08 3.0522745e-08 0.0000000e+00 
-8.9415487e-08 9.3508623e-09 0.0000000e+00 
-8.9461501e-08 -1.1498850e-08 0.0000000e+00 
-9.0188848e-08 -3.0322493e-08 0.0000000e+00 
-8.3561133e-08 1.9332624e-08 0.0000000e+00 
-8.3187246e-08 -1.0344944e-09 0.0000000e+00 
-8.3555079e-08 -1.9117378e-08 0.0000000e+00 
-7.8111377e-08 2.8812179e-08 0.0000000e+00 
-7.7294736e-08 8.8334930e-09 0.0000000e+00 
-7.7331677e-08 -1.0866422e-08 0.0000000e+00 
-7.8102154e-08 -2.8629813e-08 0.0000000e+00 
-7.1801885e-08 1.8173072e-08 0.0000000e+00 
-7.1406738e-08 -9.8274677e-10 0.0000000e+00 
-7.1787845e-08 -1.7949903e-08 0.0000000e+00 
-6.6741194e-08 2.6987607e-08 0.0000000e+00 
-6.5871859e-08 8.2727416e-09 0.0000000e+00 
-6.5917867e-08 -1.0199218e-08 0.0000000e+00 
-6.6729342e-08 -2.6848998e-08 0.0000000e+00 
-6.0767697e-08 1.6943000e-08 0.0000000e+00 
-6.0341357e-08 -9.2069541e-10 0.0000000e+00 
-6.0848421e-08 -1.8780586e-08 0.0000000e+00 
-5.6119966e-08 2.5046953e-08 0.0000000e+00 
-5.5198136e-08 7.6713071e-09 0.0000000e+00 
-5.5242140e-08 -9.4549204e-09 0.0000000e+00 
-5.6085984e-08 -2.4888124e-08 0.0000000e+00 
-5.0507481e-08 1.5644050e-08 0.0000000e+00 
-5.0054027e-08 -8.5357355e-10 0.0000000e+00 
-5.0597578e-08 -1.7356420e-08 0.0000000e+00 
-4.6306759e-08 2.2984437e-08 0.0000000e+00 
-4.5321084e-08 7.0297399e-09 0.0000000e+00 
-4.5368623e-08 -8.6741263e-09 0.0000000e+00 
-4.6268315e-08 -2.2848752e-08 0.0000000e+00 
-4.1769439e-08 1.3826188e-08 0.0000000e+00 
-4.0590493e-08 -7.8185913e-10 0.0000000e+00 
-4.1162075e-08 -1.5838193e-08 0.0000000e+00 
-3.7321467e-08 2.0858412e-08 0.0000000e+00 
-3.6286920e-08 6.3695582e-09 0.0000000e+00 
-3.6337958e-08 -7.8514768e-09 0.0000000e+00 
-3.7282337e-08 -2.0693465e-08 0.0000000e+00 
-3.3243602e-08 1.3034953e-08 0.0000000e+00 
-3.1983813e-08 -7.0881306e-10 0.0000000e+00 
-3.2590570e-08 -1.4248160e-08 0.0000000e+00 
-2.9151211e-08 5.9563869e-09 0.0000000e+00 
-2.9217913e-08 1.8574795e-08 0.0000000e+00 
-2.8193737e-08 -6.9755290e-09 0.0000000e+00 
-2.9204349e-08 -1.8385750e-08 0.0000000e+00 
-2.5533396e-08 1.1417572e-08 0.0000000e+00 
-2.5343310e-08 -2.3950902e-10 0.0000000e+00 
-2.5219034e-08 -1.1349553e-08 0.0000000e+00 
-2.1873534e-08 5.3245657e-09 0.0000000e+00 
-2.2057122e-08 1.6211445e-08 0.0000000e+00 
-2.1285830e-08 -5.2900928e-09 0.0000000e+00 
-1.9794594e-08 1.0674722e-08 0.0000000e+00 
-2.2025896e-08 -1.6062572e-08 0.0000000e+00 
-1.8515937e-08 5.2929783e-10 0.0000000e+00 
-1.8541126e-08 -1.0081910e-08 0.0000000e+00 
-1.5728654e-08 5.1448530e-09 0.0000000e+00 
-1.5838291e-08 1.3729010e-08 0.0000000e+00 
-1.4997040e-08 -4.5188830e-09 0.0000000e+00 
-1.5834043e-08 -1.3550950e-08 0.0000000e+00 
-1.3501872e-08 9.1886418e-09 0.0000000e+00 
-1.2652656e-08 4.2631726e-10 0.0000000e+00 
-1.2732680e-08 -7.8835392e-09 0.0000000e+00 
-1.0338738e-08 4.2931063e-09 0.0000000e+00 
-1.0646193e-08 1.1091124e-08 0.0000000e+00 
-9.8158219e-09 -3.3197534e-09 0.0000000e+00 
-1.0651899e-08 -1.0990904e-08 0.0000000e+00 
-8.6338590e-09 7.3823960e-09 0.0000000e+00 
-7.7643731e-09 3.8774983e-10 0.0000000e+00 
-8.0005664e-09 -6.2783432e-09 0.0000000e+00 
-5.9875225e-09 3.3239453e-09 0.0000000e+00 
-6.5463235e-09 8.3627638e-09 0.0000000e+00 
-5.5634630e-09 -2.4724356e-09 0.0000000e+00 
-6.5244152e-09 -8.2880440e-09 0.0000000e+00 
-4.5149537e-09 5.2431153e-09 0.0000000e+00 
-3.7204992e-09 3.5765796e-10 0.0000000e+00 
-4.2997219e-09 -4.5189217e-09 0.0000000e+00 
-2.5074034e-09 2.1558557e-09 0.0000000e+00 
-3.5605763e-09 5.4677574e-09 0.0000000e+00 
-2.4170808e-09 -1.6302929e-09 0.0000000e+00 
-2.2383182e-09 3.2911884e-09 0.0000000e+00 
-3.5140404e-09 -5.4514278e-09 0.0000000e+00 
-1.1890766e-09 2.6250258e-10 0.0000000e+00 
-1.4272771e-09 -2.3594564e-09 0.0000000e+00 
-8.0458623e-10 1.3576029e-09 0.0000000e+00 
-1.4293976e-09 2.5330154e-09 0.0000000e+00 
-3.1647485e-10 -4.5960616e-10 0.0000000e+00 
-1.4903149e-09 -2.5274547e-09 0.0000000e+00 
0.0000000e+00 0.0000000e+00 0.0000000e+00 
0.0000000e+00 0.0000000e+00 0.0000000e+00 
0.0000000e+00 0.0000000e+00 0.0000000e+00 
0.0000000e+00 0.0000000e+00 0.0000000e+00 
0.0000000e+00 0.0000000e+00 0.0000000e+00 
0.0000000e+00 0.0000000e+00 0.0000000e+00 
REACTION 3 340  float
-5.8998222e-07 -6.1443404e-07 0.0000000e+00 
-3.0419296e-06 -6.0149517e-07 0.0000000e+00 
-7.5518000e-07 -3.7783861e-06 0.0000000e+00 
6.7699403e-07 1.6706326e-06 0.0000000e+00 
4.6531632e-06 8.8729070e-07 0.0000000e+00 
1.0545027e-06 -9.8550913e-07 0.0000000e+00 
-4.4036397e-06 1.1160747e-06 0.0000000e+00 
1.6618625e-06 -1.5412016e-06 0.0000000e+00 
-2.8694714e-08 3.7276089e-07 0.0000000e+00 
-7.0152942e-07 -2.3078168e-07 0.0000000e+00 
-2.7042931e-06 -3.7307694e-07 0.0000000e+00 
-1.4441630e-06 -1.9891957e-06 0.0000000e+00 
-1.0163219e-06 -1.5668743e-06 0.0000000e+00 
-4.2606898e-06 7.4590054e-07 0.0000000e+00 
3.4445532e-06 1.1908242e-06 0.0000000e+00 
-2.8846728e-06 9.3215186e-07 0.0000000e+00 
4.8542092e-06 -2.7119088e-06 0.0000000e+00 
4.7515387e-06 -4.1432613e-06 0.0000000e+00 
-4.2436468e-06 1.5639303e-06 0.0000000e+00 
8.7553809e-07 2.5151755e-06 0.0000000e+00 
-2.4458157e-06 4.3627447e-06 0.0000000e+00 
-3.6174936e-07 -1.7415585e-06 0.0000000e+00 
-2.3350401e-06 8.5904600e-07 0.0000000e+00 
1.9567474e-06 3.1051122e-06 0.0000000e+00 
-1.7523281e-06 6.2677844e-07 0.0000000e+00 
-2.5927536e-06 -1.1258761e-06 0.0000000e+00 
4.8980673e-06 -4.1539724e-06 0.0000000e+00 
-8.3133051e-07 8.2119607e-07 0.0000000e+00 
3.7297989e-06 9.9815827e-07 0.0000000e+00 
2.9936937e-06 -2.5721654e-06 0.0000000e+00 
1.2446786e-06 4.2731941e-08 0.0000000e+00 
-4.5184743e-06 -2.1757278e-06 0.0000000e+00 
7.3181110e-07 -9.3201322e-07 0.0000000e+00 
1.9984809e-06 -2.7403582e-06 0.0000000e+00 
-2.9855705e-06 1.1603331e-06 0.0000000e+00 
-2.8239128e-07 3.3371290e-08 0.0000000e+00 
1.1127719e-06 -2.7899903e-06 0.0000000e+00 
3.9119755e-06 2.1119087e-07 0.0000000e+00 
1.1026701e-06 7.5986969e-07 0.0000000e+00 
-4.9394606e-07 5.0397352e-06 0.0000000e+00 
-2.9435984e-07 8.0771443e-08 0.0000000e+00 
-3.0976048e-06 -1.7643640e-07 0.0000000e+00 
-8.4582570e-07 4.8211342e-07 0.0000000e+00 
3.9290745e-07 2.1074954e-06 0.0000000e+00 
5.2244462e-07 -2.3569999e-06 0.0000000e+00 
4.7641805e-07 -1.8930155e-06 0.0000000e+00 
1.1679934e-07 -8.8576854e-08 0.0000000e+00 
-2.8010800e-06 -1.2710946e-06 0.0000000e+00 
3.1051701e-07 -1.9697727e-06 0.0000000e+00 
1.5919509e-06 -8.9333736e-07 0.0000000e+00 
-8.4007598e-07 2.0398543e-06 0.0000000e+00 
1.0024436e-06 -2.1932001e-06 0.0000000e+00 
5.7227595e-07 6.6724397e-07 0.0000000e+00 
-2.4077033e-07 6.5776783e-07 0.0000000e+00 
2.2410063e-06 7.6038492e-07 0.0000000e+00 
-1.6755438e-06 2.7811532e-06 0.0000000e+00 
-9.1908544e-07 1.6498246e-06 0.0000000e+00 
1.1221000e-06 -4.5917488e-07 0.0000000e+00 
2.3614443e-06 2.3390721e-06 0.0000000e+00 
-7.4385019e-07 -2.1082997e-06 0.0000000e+00 
5.8405635e-07 2.1441103e-07 0.0000000e+00 
-2.4237083e-06 -1.6316092e-06 0.0000000e+00 
-1.0022635e-06 -1.9602032e-06 0.0000000e+00 
9.0031898e-07 8.8947877e-07 0.0000000e+00 
2.7656272e-06 -1.0649834e-06 0.0000000e+00 
7.4459098e-07 1.2800324e-06 0.0000000e+00 
8.5839027e-08 -4.9480758e-07 0.0000000e+00 
-3.9336260e-06 6.0117446e-07 0.0000000e+00 
1.2059538e-06 -2.2935385e-06 0.0000000e+00 
-3.6506228e-07 1.2924514e-07 0.0000000e+00 
-8.9732748e-07 3.2002258e-06 0.0000000e+00 
1.1531977e-06 -6.0738586e-07 0.0000000e+00 
-4.8781510e-07 -3.6378643e-07 0.0000000e+00 
2.5482175e-08 -5.6153283e-08 0.0000000e+00 
2.8617892e-06 4.1717431e-06 0.0000000e+00 
-3.4936207e-07 -1.0103987e-07 0.0000000e+00 
-1.8095690e-06 -2.7091764e-06 0.0000000e+00 
1.0361174e-06 2.6315911e-07 0.0000000e+00 
2.2143226e-07 1.3132227e-06 0.0000000e+00 
-8.1085585e-07 -1.8768001e-06 0.0000000e+00 
-3.4422571e-06 -4.7851393e-07 0.0000000e+00 
2.6292907e-06 1.2603634e-06 0.0000000e+00 
-1.7005185e-06 3.1345799e-06 0.0000000e+00 
3.4421935e-06 -1.2559683e-06 0.0000000e+00 
-9.4383313e-07 -1.1056638e-06 0.0000000e+00 
-2.0172913e-06 5.4520897e-06 0.0000000e+00 
8.4933055e-07 1.1455738e-06 0.0000000e+00 
9.9418492e-07 -1.7041417e-06 0.0000000e+00 
-5.3614883e-07 -1.4431153e-06 0.0000000e+00 
-1.4229848e-06 -2.0742864e-06 0.0000000e+00 
-4.7430689e-08 4.9292902e-07 0.0000000e+00 
6.2980541e-07 5.8558976e-07 0.0000000e+00 
1.1967153e-06 -2.5184140e-06 0.0000000e+00 
1.5080765e-06 2.3006150e-07 0.0000000e+00 
2.6036880e-06 -1.8148918e-07 0.0000000e+00 
-2.8295472e-06 2.2144920e-07 0.0000000e+00 
-1.7930199e-06 2.6934833e-06 0.0000000e+00 
-1.9554284e-06 -1.2718233e-07 0.0000000e+00 
2.2540166e-06 -1.8134675e-06 0.0000000e+00 
2.4734197e-06 5.3501390e-07 0.0000000e+00 
5.4772624e-07 -8.1409587e-07 0.0000000e+00 
-1.2311743e-07 1.3295809e-06 0.0000000e+00 
-1.3810213e-06 1.4341970e-06 0.0000000e+00 
-1.7010549e-06 -1.0842419e-06 0.0000000e+00 
-2.2424933e-06 -1.0553892e-06 0.0000000e+00 
3.3678641e-06 4.3119445e-07 0.0000000e+00 
-2.3048576e-06 -1.9606919e-06 0.0000000e+00 
-6.3405236e-07 1.8018195e-06 0.0000000e+00 