# vtk DataFile Version 4.0
vtk output
ASCII
DATASET UNSTRUCTURED_GRID
POINTS 340 float
1.0000000e+00 1.0000000e+01 0.0000000e+00 
1.0000000e+00 9.8000002e+00 0.0000000e+00 
8.0000001e-01 1.0000000e+01 0.0000000e+00 
7.2964472e-01 9.8093147e+00 0.0000000e+00 
8.4182751e-01 9.6382694e+00 0.0000000e+00 
6.0000002e-01 1.0000000e+01 0.0000000e+00 
1.0000000e+00 9.6000004e+00 0.0000000e+00 
5.0000000e-01 9.8267946e+00 0.0000000e+00 
6.3604087e-01 9.5908260e+00 0.0000000e+00 
8.4263843e-01 9.4342804e+00 0.0000000e+00 
4.0000001e-01 1.0000000e+01 0.0000000e+00 
1.0000000e+00 9.3999996e+00 0.0000000e+00 
4.0534732e-01 9.6340141e+00 0.0000000e+00 
2.7881753e-01 9.8140564e+00 0.0000000e+00 
6.7177695e-01 9.3303623e+00 0.0000000e+00 
4.9604306e-01 9.4256926e+00 0.0000000e+00 
8.4713864e-01 9.2343493e+00 0.0000000e+00 
2.0000000e-01 1.0000000e+01 0.0000000e+00 
1.0000000e+00 9.1999998e+00 0.0000000e+00 
3.0000001e-01 9.4803848e+00 0.0000000e+00 
1.6755788e-01 9.6235323e+00 0.0000000e+00 
6.7617422e-01 9.1307087e+00 0.0000000e+00 
4.8477495e-01 9.2195473e+00 0.0000000e+00 
8.5255039e-01 9.0345669e+00 0.0000000e+00 
0.0000000e+00 1.0000000e+01 0.0000000e+00 
1.0000000e+00 9.0000000e+00 0.0000000e+00 
0.0000000e+00 9.8000002e+00 0.0000000e+00 
2.2804837e-01 9.2825413e+00 0.0000000e+00 
0.0000000e+00 9.6000004e+00 0.0000000e+00 
5.0581944e-01 9.0259790e+00 0.0000000e+00 
3.3078760e-01 9.1219988e+00 0.0000000e+00 
6.8160146e-01 8.9308100e+00 0.0000000e+00 
0.0000000e+00 9.3999996e+00 0.0000000e+00 
8.5683817e-01 8.8346405e+00 0.0000000e+00 
1.0000000e+00 8.8000002e+00 0.0000000e+00 
1.7320508e-01 9.1000004e+00 0.0000000e+00 
3.3639798e-01 8.9224386e+00 0.0000000e+00 
5.1166874e-01 8.8261728e+00 0.0000000e+00 
0.0000000e+00 9.1999998e+00 0.0000000e+00 
6.8573916e-01 8.7312880e+00 0.0000000e+00 
1.7320508e-01 8.8999996e+00 0.0000000e+00 
1.0000000e+00 8.6000004e+00 0.0000000e+00 
0.0000000e+00 9.0000000e+00 0.0000000e+00 
3.4077987e-01 8.7225189e+00 0.0000000e+00 
5.1553297e-01 8.6263428e+00 0.0000000e+00 
7.3636049e-01 8.5193882e+00 0.0000000e+00 
0.0000000e+00 8.8000002e+00 0.0000000e+00 
1.0000000e+00 8.3999996e+00 0.0000000e+00 
1.7061394e-01 8.6176825e+00 0.0000000e+00 
3.4670532e-01 8.5231361e+00 0.0000000e+00 
5.2180642e-01 8.4266043e+00 0.0000000e+00 
7.4737626e-01 8.3175163e+00 0.0000000e+00 
0.0000000e+00 8.6000004e+00 0.0000000e+00 
1.7467257e-01 8.4178057e+00 0.0000000e+00 
3.5083947e-01 8.3232317e+00 0.0000000e+00 
1.0000000e+00 8.1999998e+00 0.0000000e+00 
5.2511263e-01 8.2268429e+00 0.0000000e+00 
0.0000000e+00 8.3999996e+00 0.0000000e+00 
7.5983411e-01 8.1149063e+00 0.0000000e+00 
1.8103610e-01 8.2179594e+00 0.0000000e+00 
3.5745192e-01 8.1241884e+00 0.0000000e+00 
1.0000000e+00 8.0000000e+00 0.0000000e+00 
5.3222626e-01 8.0272846e+00 0.0000000e+00 
0.0000000e+00 8.1999998e+00 0.0000000e+00 
7.5571120e-01 7.9173551e+00 0.0000000e+00 
1.8344399e-01 8.0151854e+00 0.0000000e+00 
3.6146736e-01 7.9243879e+00 0.0000000e+00 
1.0000000e+00 7.8000002e+00 0.0000000e+00 
5.3374660e-01 7.8279252e+00 0.0000000e+00 
0.0000000e+00 8.0000000e+00 0.0000000e+00 
7.6374203e-01 7.7163153e+00 0.0000000e+00 
1.9437179e-01 7.8156433e+00 0.0000000e+00 
3.7308612e-01 7.7272835e+00 0.0000000e+00 
1.0000000e+00 7.5999999e+00 0.0000000e+00 
5.4554766e-01 7.6299233e+00 0.0000000e+00 
0.0000000e+00 7.8000002e+00 0.0000000e+00 
7.4744660e-01 7.5226874e+00 0.0000000e+00 
2.0444529e-01 7.6206732e+00 0.0000000e+00 
3.8187346e-01 7.5294333e+00 0.0000000e+00 
0.0000000e+00 7.5999999e+00 0.0000000e+00 
1.0000000e+00 7.4000001e+00 0.0000000e+00 
5.2131432e-01 7.4393973e+00 0.0000000e+00 
1.9729473e-01 7.4537926e+00 0.0000000e+00 
7.0935732e-01 7.3327885e+00 0.0000000e+00 
3.5328710e-01 7.3320160e+00 0.0000000e+00 
8.4863865e-01 7.2198439e+00 0.0000000e+00 
0.0000000e+00 7.4000001e+00 0.0000000e+00 
5.3123343e-01 7.2420211e+00 0.0000000e+00 
1.0000000e+00 7.1999998e+00 0.0000000e+00 
1.7718045e-01 7.2569203e+00 0.0000000e+00 
6.6225648e-01 7.1541371e+00 0.0000000e+00 
3.4724638e-01 7.1689978e+00 0.0000000e+00 
8.3611876e-01 7.0656843e+00 0.0000000e+00 
0.0000000e+00 7.1999998e+00 0.0000000e+00 
4.9535713e-01 7.0473509e+00 0.0000000e+00 
1.0000000e+00 7.0000000e+00 0.0000000e+00 
1.7387313e-01 7.0734706e+00 0.0000000e+00 
6.6474640e-01 6.9560146e+00 0.0000000e+00 
3.4690949e-01 6.9773350e+00 0.0000000e+00 
8.4107113e-01 6.8641090e+00 0.0000000e+00 
0.0000000e+00 7.0000000e+00 0.0000000e+00 
5.2873749e-01 6.8578229e+00 0.0000000e+00 
1.0000000e+00 6.8000002e+00 0.0000000e+00 
1.7445621e-01 6.8769779e+00 0.0000000e+00 
6.7736709e-01 6.7575765e+00 0.0000000e+00 
3.4595537e-01 6.7778087e+00 0.0000000e+00 
8.3462298e-01 6.6689000e+00 0.0000000e+00 
0.0000000e+00 6.8000002e+00 0.0000000e+00 
5.0501287e-01 6.6597099e+00 0.0000000e+00 
1.0000000e+00 6.5999999e+00 0.0000000e+00 
1.8097465e-01 6.6789780e+00 0.0000000e+00 
6.6962856e-01 6.5595260e+00 0.0000000e+00 
3.2066780e-01 6.5871606e+00 0.0000000e+00 
8.3965176e-01 6.4710097e+00 0.0000000e+00 
0.0000000e+00 6.5999999e+00 0.0000000e+00 
4.8932999e-01 6.4914999e+00 0.0000000e+00 
1.0000000e+00 6.4000001e+00 0.0000000e+00 
1.4997987e-01 6.4839683e+00 0.0000000e+00 
6.6350561e-01 6.3954086e+00 0.0000000e+00 
3.2280096e-01 6.3877153e+00 0.0000000e+00 
8.3153027e-01 6.2889266e+00 0.0000000e+00 
0.0000000e+00 6.4000001e+00 0.0000000e+00 
4.9695736e-01 6.2927222e+00 0.0000000e+00 
1.0000000e+00 6.1999998e+00 0.0000000e+00 
1.6071729e-01 6.2864423e+00 0.0000000e+00 
6.5358984e-01 6.1999998e+00 0.0000000e+00 
3.3329538e-01 6.1896143e+00 0.0000000e+00 
8.1998920e-01 6.0895286e+00 0.0000000e+00 
0.0000000e+00 6.1999998e+00 0.0000000e+00 
4.8038477e-01 6.0999999e+00 0.0000000e+00 
1.7059118e-01 6.0888028e+00 0.0000000e+00 
1.0000000e+00 6.0000000e+00 0.0000000e+00 
6.5358984e-01 6.0000000e+00 0.0000000e+00 
3.0717969e-01 6.0000000e+00 0.0000000e+00 
8.2679492e-01 5.9000001e+00 0.0000000e+00 
0.0000000e+00 6.0000000e+00 0.0000000e+00 
4.8038477e-01 5.9000001e+00 0.0000000e+00 
1.3397460e-01 5.9000001e+00 0.0000000e+00 
1.0000000e+00 5.8000002e+00 0.0000000e+00 
6.5358984e-01 5.8000002e+00 0.0000000e+00 
3.0717969e-01 5.8000002e+00 0.0000000e+00 
8.2679492e-01 5.6999998e+00 0.0000000e+00 
0.0000000e+00 5.8000002e+00 0.0000000e+00 
4.8038477e-01 5.6999998e+00 0.0000000e+00 
1.3397460e-01 5.6999998e+00 0.0000000e+00 
1.0000000e+00 5.5999999e+00 0.0000000e+00 
6.5358984e-01 5.5999999e+00 0.0000000e+00 
3.2231969e-01 5.6385756e+00 0.0000000e+00 
8.2679492e-01 5.5000000e+00 0.0000000e+00 
0.0000000e+00 5.5999999e+00 0.0000000e+00 
4.8038477e-01 5.5000000e+00 0.0000000e+00 
1.7059118e-01 5.5111971e+00 0.0000000e+00 
1.0000000e+00 5.4000001e+00 0.0000000e+00 
6.5358984e-01 5.4000001e+00 0.0000000e+00 
3.3329538e-01 5.3896141e+00 0.0000000e+00 
8.2679492e-01 5.3000002e+00 0.0000000e+00 
0.0000000e+00 5.4000001e+00 0.0000000e+00 
4.8038477e-01 5.3000002e+00 0.0000000e+00 
1.7059118e-01 5.2888031e+00 0.0000000e+00 
1.0000000e+00 5.1999998e+00 0.0000000e+00 
6.5358984e-01 5.1999998e+00 0.0000000e+00 
3.0717969e-01 5.1999998e+00 0.0000000e+00 
8.2679492e-01 5.0999999e+00 0.0000000e+00 
0.0000000e+00 5.1999998e+00 0.0000000e+00 
4.8038477e-01 5.0999999e+00 0.0000000e+00 
1.3397460e-01 5.0999999e+00 0.0000000e+00 
1.0000000e+00 5.0000000e+00 0.0000000e+00 
6.5358984e-01 5.0000000e+00 0.0000000e+00 
3.0717969e-01 5.0000000e+00 0.0000000e+00 
0.0000000e+00 5.0000000e+00 0.0000000e+00 
8.2679492e-01 4.9000001e+00 0.0000000e+00 
4.8038477e-01 4.9000001e+00 0.0000000e+00 
1.3397460e-01 4.9000001e+00 0.0000000e+00 
1.0000000e+00 4.8000002e+00 0.0000000e+00 
6.5358984e-01 4.8000002e+00 0.0000000e+00 
3.0717969e-01 4.8000002e+00 0.0000000e+00 
0.0000000e+00 4.8000002e+00 0.0000000e+00 
8.2679492e-01 4.6999998e+00 0.0000000e+00 
4.8038477e-01 4.6999998e+00 0.0000000e+00 
1.3397460e-01 4.6999998e+00 0.0000000e+00 
1.0000000e+00 4.5999999e+00 0.0000000e+00 
6.5358984e-01 4.5999999e+00 0.0000000e+00 
3.0717969e-01 4.5999999e+00 0.0000000e+00 
0.0000000e+00 4.5999999e+00 0.0000000e+00 
8.2679492e-01 4.5000000e+00 0.0000000e+00 
4.8038477e-01 4.5000000e+00 0.0000000e+00 
1.3397460e-01 4.5000000e+00 0.0000000e+00 
1.0000000e+00 4.4000001e+00 0.0000000e+00 
6.5358984e-01 4.4000001e+00 0.0000000e+00 
3.0717969e-01 4.4000001e+00 0.0000000e+00 
8.3046603e-01 4.3165317e+00 0.0000000e+00 
0.0000000e+00 4.4000001e+00 0.0000000e+00 
4.8038477e-01 4.3000002e+00 0.0000000e+00 
1.7059118e-01 4.3111973e+00 0.0000000e+00 
6.6123927e-01 4.2184782e+00 0.0000000e+00 
1.0000000e+00 4.1999998e+00 0.0000000e+00 
3.3329538e-01 4.2103858e+00 0.0000000e+00 
8.3268768e-01 4.1176395e+00 0.0000000e+00 
0.0000000e+00 4.1999998e+00 0.0000000e+00 
4.9695736e-01 4.1072779e+00 0.0000000e+00 
1.6071729e-01 4.1135573e+00 0.0000000e+00 
1.0000000e+00 4.0000000e+00 0.0000000e+00 
3.2280096e-01 4.0122848e+00 0.0000000e+00 
6.4947557e-01 3.9632084e+00 0.0000000e+00 
8.4590596e-01 3.9203768e+00 0.0000000e+00 
0.0000000e+00 4.0000000e+00 0.0000000e+00 
4.7627035e-01 3.9377375e+00 0.0000000e+00 
1.4997987e-01 3.9160316e+00 0.0000000e+00 
1.0000000e+00 3.8000000e+00 0.0000000e+00 
3.2066780e-01 3.8128395e+00 0.0000000e+00 
5.1165128e-01 3.7661045e+00 0.0000000e+00 
0.0000000e+00 3.8000000e+00 0.0000000e+00 
7.4880123e-01 3.7184730e+00 0.0000000e+00 
1.8097465e-01 3.7210221e+00 0.0000000e+00 
1.0000000e+00 3.5999999e+00 0.0000000e+00 
3.4595537e-01 3.6221914e+00 0.0000000e+00 
5.2873749e-01 3.5421770e+00 0.0000000e+00 
0.0000000e+00 3.5999999e+00 0.0000000e+00 
1.7445621e-01 3.5230222e+00 0.0000000e+00 
7.1247655e-01 3.4632580e+00 0.0000000e+00 
1.0000000e+00 3.4000001e+00 0.0000000e+00 
3.4690949e-01 3.4226651e+00 0.0000000e+00 
0.0000000e+00 3.4000001e+00 0.0000000e+00 
5.1989859e-01 3.3223066e+00 0.0000000e+00 
8.2679492e-01 3.3000000e+00 0.0000000e+00 
1.7356591e-01 3.3231418e+00 0.0000000e+00 
1.0000000e+00 3.2000000e+00 0.0000000e+00 
3.4647828e-01 3.2226951e+00 0.0000000e+00 
6.5358984e-01 3.2000000e+00 0.0000000e+00 
5.0604391e-01 3.1465836e+00 0.0000000e+00 
[...]
POINT_DATA 340
FIELD FieldData 3
DISPLACEMENT 3 340  float
-3.0322649e+01 2.6184804e+00 0.0000000e+00 
-2.9492416e+01 2.6179175e+00 0.0000000e+00 
-3.0322460e+01 1.7883806e+00 0.0000000e+00 
-2.9530836e+01 1.4958923e+00 0.0000000e+00 
-2.8820438e+01 1.9607311e+00 0.0000000e+00 
-3.0322412e+01 9.5850098e-01 0.0000000e+00 
-2.8661680e+01 2.6172457e+00 0.0000000e+00 
-2.9603613e+01 5.4341042e-01 0.0000000e+00 
-2.8623194e+01 1.1070480e+00 0.0000000e+00 
-2.7972710e+01 1.9630184e+00 0.0000000e+00 
-3.0322838e+01 1.2876606e-01 0.0000000e+00 
-2.7830698e+01 2.6159711e+00 0.0000000e+00 
-2.8803053e+01 1.5074912e-01 0.0000000e+00 
-2.9551405e+01 -3.7410897e-01 0.0000000e+00 
-2.7540503e+01 1.2541043e+00 0.0000000e+00 
-2.7936935e+01 5.2644515e-01 0.0000000e+00 
-2.7141802e+01 1.9800245e+00 0.0000000e+00 
-3.0323685e+01 -7.0119268e-01 0.0000000e+00 
-2.6999771e+01 2.6138246e+00 0.0000000e+00 
-2.8164948e+01 -2.8588298e-01 0.0000000e+00 
-2.8760527e+01 -8.3569485e-01 0.0000000e+00 
-2.6710636e+01 1.2711439e+00 0.0000000e+00 
-2.7079929e+01 4.7962925e-01 0.0000000e+00 
-2.6311861e+01 2.0000496e+00 0.0000000e+00 
-3.0324650e+01 -1.5313598e+00 0.0000000e+00 
-2.6169317e+01 2.6105258e+00 0.0000000e+00 
-2.9494364e+01 -1.5313746e+00 0.0000000e+00 
-2.7342726e+01 -5.8363563e-01 0.0000000e+00 
-2.8663698e+01 -1.5312417e+00 0.0000000e+00 
-2.6275311e+01 5.6627256e-01 0.0000000e+00 
-2.6674812e+01 -1.5765338e-01 0.0000000e+00 
-2.5880329e+01 1.2918769e+00 0.0000000e+00 
-2.7832556e+01 -1.5306240e+00 0.0000000e+00 
-2.5482286e+01 2.0144837e+00 0.0000000e+00 
-2.5340483e+01 2.6055624e+00 0.0000000e+00 
-2.6584084e+01 -8.0976492e-01 0.0000000e+00 
-2.5845533e+01 -1.3364826e-01 0.0000000e+00 
-2.5445814e+01 5.8985531e-01 0.0000000e+00 
-2.7001354e+01 -1.5293857e+00 0.0000000e+00 
-2.5052969e+01 1.3067170e+00 0.0000000e+00 
-2.5752987e+01 -8.0798888e-01 0.0000000e+00 
-2.4512398e+01 2.5995474e+00 0.0000000e+00 
-2.6169649e+01 -1.5270654e+00 0.0000000e+00 
-2.5016249e+01 -1.1461981e-01 0.0000000e+00 
-2.4617855e+01 6.0505944e-01 0.0000000e+00 
-2.4176662e+01 1.5115054e+00 0.0000000e+00 
-2.5339264e+01 -1.5234367e+00 0.0000000e+00 
-2.3687269e+01 2.5924931e+00 0.0000000e+00 
-2.4582808e+01 -8.1504381e-01 0.0000000e+00 
-2.4191101e+01 -8.9172393e-02 0.0000000e+00 
-2.3792547e+01 6.2971956e-01 0.0000000e+00 
-2.3344347e+01 1.5523870e+00 0.0000000e+00 
-2.4511127e+01 -1.5186949e+00 0.0000000e+00 
-2.3757212e+01 -7.9478449e-01 0.0000000e+00 
-2.3366543e+01 -7.0890121e-02 0.0000000e+00 
-2.2864859e+01 2.5838938e+00 0.0000000e+00 
-2.2970026e+01 6.4198118e-01 0.0000000e+00 
-2.3685637e+01 -1.5126677e+00 0.0000000e+00 
-2.2512197e+01 1.5981632e+00 0.0000000e+00 
-2.2934631e+01 -7.6444083e-01 0.0000000e+00 
-2.2548645e+01 -4.2324953e-02 0.0000000e+00 
-2.2045918e+01 2.5736740e+00 0.0000000e+00 
-2.2151686e+01 6.6945541e-01 0.0000000e+00 
-2.2863125e+01 -1.5054399e+00 0.0000000e+00 
-2.1704309e+01 1.5754757e+00 0.0000000e+00 
-2.2103540e+01 -7.4964416e-01 0.0000000e+00 
-2.1731264e+01 -2.4221860e-02 0.0000000e+00 
-2.1230955e+01 2.5621259e+00 0.0000000e+00 
-2.1338026e+01 6.7392659e-01 0.0000000e+00 
-2.2044109e+01 -1.4969900e+00 0.0000000e+00 
-2.0886530e+01 1.6012226e+00 0.0000000e+00 
-2.1289543e+01 -6.9965440e-01 0.0000000e+00 
-2.0928894e+01 2.4697829e-02 0.0000000e+00 
-2.0420645e+01 2.5488937e+00 0.0000000e+00 
-2.0534300e+01 7.1938372e-01 0.0000000e+00 
-2.1229139e+01 -1.4874395e+00 0.0000000e+00 
-2.0103159e+01 1.5281594e+00 0.0000000e+00 
-2.0498335e+01 -6.5289164e-01 0.0000000e+00 
-2.0128086e+01 6.1874967e-02 0.0000000e+00 
-2.0418722e+01 -1.4767768e+00 0.0000000e+00 
-1.9614933e+01 2.5346694e+00 0.0000000e+00 
-1.9765385e+01 6.1980170e-01 0.0000000e+00 
-1.9825092e+01 -6.7600554e-01 0.0000000e+00 
-1.9339321e+01 1.3680912e+00 0.0000000e+00 
-1.9334494e+01 -4.9925651e-02 0.0000000e+00 
-1.8890493e+01 1.9177217e+00 0.0000000e+00 
-1.9613163e+01 -1.4646521e+00 0.0000000e+00 
-1.8974438e+01 6.5723455e-01 0.0000000e+00 
-1.8815716e+01 2.5184357e+00 0.0000000e+00 
-1.9036089e+01 -7.4871421e-01 0.0000000e+00 
-1.8625130e+01 1.1747328e+00 0.0000000e+00 
-1.8683378e+01 -7.1500234e-02 0.0000000e+00 
-1.8277060e+01 1.8582320e+00 0.0000000e+00 
-1.8813267e+01 -1.4510106e+00 0.0000000e+00 
-1.8199696e+01 5.1374304e-01 0.0000000e+00 
-1.8022264e+01 2.5002902e+00 0.0000000e+00 
-1.8305994e+01 -7.5382370e-01 0.0000000e+00 
-1.7839899e+01 1.1777685e+00 0.0000000e+00 
-1.7923067e+01 -6.9198266e-02 0.0000000e+00 
-1.7481840e+01 1.8640480e+00 0.0000000e+00 
-1.8019619e+01 -1.4361578e+00 0.0000000e+00 
-1.7451864e+01 6.4284772e-01 0.0000000e+00 
-1.7235760e+01 2.4805248e+00 0.0000000e+00 
-1.7529957e+01 -7.4220318e-01 0.0000000e+00 
-1.7060570e+01 1.2188962e+00 0.0000000e+00 
-1.7138327e+01 -6.9246151e-02 0.0000000e+00 
-1.6718277e+01 1.8244718e+00 0.0000000e+00 
-1.7232811e+01 -1.4201363e+00 0.0000000e+00 
-1.6677029e+01 5.4821187e-01 0.0000000e+00 
-1.6456604e+01 2.4592650e+00 0.0000000e+00 
-1.6754904e+01 -7.0666730e-01 0.0000000e+00 
-1.6289883e+01 1.1804482e+00 0.0000000e+00 
-1.6395752e+01 -1.6310342e-01 0.0000000e+00 
-1.5952215e+01 1.8283542e+00 0.0000000e+00 
-1.6453527e+01 -1.4032069e+00 0.0000000e+00 
-1.6025036e+01 4.8618120e-01 0.0000000e+00 
-1.5685460e+01 2.4362426e+00 0.0000000e+00 
-1.5999738e+01 -8.1517905e-01 0.0000000e+00 
-1.5657132e+01 1.1496030e+00 0.0000000e+00 
-1.5626356e+01 -1.4959611e-01 0.0000000e+00 
-1.5254250e+01 1.7821681e+00 0.0000000e+00 
-1.5681795e+01 -1.3842567e+00 0.0000000e+00 
-1.5262259e+01 5.1329553e-01 0.0000000e+00 
-1.4923025e+01 2.4117346e+00 0.0000000e+00 
-1.5242065e+01 -7.6194364e-01 0.0000000e+00 
-1.4911384e+01 1.1025605e+00 0.0000000e+00 
-1.4870513e+01 -1.0459319e-01 0.0000000e+00 
-1.4498162e+01 1.7212101e+00 0.0000000e+00 
-1.4919017e+01 -1.3646345e+00 0.0000000e+00 
-1.4531148e+01 4.4870585e-01 0.0000000e+00 
-1.4492545e+01 -7.1193415e-01 0.0000000e+00 
-1.4169631e+01 2.3858933e+00 0.0000000e+00 
-1.4157189e+01 1.0928116e+00 0.0000000e+00 
-1.4155964e+01 -1.9714521e-01 0.0000000e+00 
-1.3788716e+01 1.7290699e+00 0.0000000e+00 
-1.4165300e+01 -1.3443035e+00 0.0000000e+00 
-1.3781549e+01 4.4694364e-01 0.0000000e+00 
-1.3786215e+01 -8.3511776e-01 0.0000000e+00 
-1.3425878e+01 2.3580515e+00 0.0000000e+00 
-1.3412707e+01 1.0822680e+00 0.0000000e+00 
-1.3411297e+01 -1.9053961e-01 0.0000000e+00 
-1.3049655e+01 1.7093489e+00 0.0000000e+00 
-1.3420774e+01 -1.3216398e+00 0.0000000e+00 
-1.3042000e+01 4.4502670e-01 0.0000000e+00 
-1.3047027e+01 -8.1981397e-01 0.0000000e+00 
-1.2692475e+01 2.3286247e+00 0.0000000e+00 
-1.2678578e+01 1.0710005e+00 0.0000000e+00 
-1.2817603e+01 -1.2978485e-01 0.0000000e+00 
-1.2321160e+01 1.6884284e+00 0.0000000e+00 
-1.2687331e+01 -1.2978699e+00 0.0000000e+00 
-1.2313080e+01 4.4274530e-01 0.0000000e+00 
-1.2357773e+01 -6.7236894e-01 0.0000000e+00 
-1.1969778e+01 2.2976501e+00 0.0000000e+00 
-1.1955242e+01 1.0589750e+00 0.0000000e+00 
-1.1915719e+01 -8.2663573e-02 0.0000000e+00 
-1.1603538e+01 1.6663455e+00 0.0000000e+00 
-1.1964450e+01 -1.2742802e+00 0.0000000e+00 
-1.1594998e+01 4.3972525e-01 0.0000000e+00 
-1.1559540e+01 -6.5509260e-01 0.0000000e+00 
-1.1258227e+01 2.2650156e+00 0.0000000e+00 
-1.1242849e+01 1.0462167e+00 0.0000000e+00 
-1.1241309e+01 -1.6885009e-01 0.0000000e+00 
-1.0897271e+01 1.6429726e+00 0.0000000e+00 
-1.1252845e+01 -1.2495009e+00 0.0000000e+00 
-1.0888431e+01 4.3715608e-01 0.0000000e+00 
-1.0894558e+01 -7.6763254e-01 0.0000000e+00 
-1.0558331e+01 2.2305870e+00 0.0000000e+00 
-1.0542240e+01 1.0327859e+00 0.0000000e+00 
-1.0540870e+01 -1.6100514e-01 0.0000000e+00 
-1.0553374e+01 -1.2223372e+00 0.0000000e+00 
-1.0202947e+01 1.6182909e+00 0.0000000e+00 
-1.0193744e+01 4.3433285e-01 0.0000000e+00 
-1.0200884e+01 -7.4902368e-01 0.0000000e+00 
-9.8706484e+00 2.1942539e+00 0.0000000e+00 
-9.8537064e+00 1.0185442e+00 0.0000000e+00 
-9.8524799e+00 -1.5271743e-01 0.0000000e+00 
-9.8665762e+00 -1.1944439e+00 0.0000000e+00 
-9.5209846e+00 1.5920942e+00 0.0000000e+00 
-9.5112982e+00 4.3125460e-01 0.0000000e+00 
-9.5191345e+00 -7.2922724e-01 0.0000000e+00 
-9.1956902e+00 2.1556964e+00 0.0000000e+00 
-9.1776953e+00 1.0033247e+00 0.0000000e+00 
-9.1764822e+00 -1.4404243e-01 0.0000000e+00 
-9.1912355e+00 -1.1651416e+00 0.0000000e+00 
-8.8519344e+00 1.5640731e+00 0.0000000e+00 
-8.8415709e+00 4.2783597e-01 0.0000000e+00 
-8.8497925e+00 -7.0871449e-01 0.0000000e+00 
-8.5340395e+00 2.1144633e+00 0.0000000e+00 
-8.5148840e+00 9.8690218e-01 0.0000000e+00 
-8.5133867e+00 -1.3499227e-01 0.0000000e+00 
-8.2503777e+00 1.5484020e+00 0.0000000e+00 
-8.5294189e+00 -1.1336821e+00 0.0000000e+00 
-8.1854420e+00 4.2390752e-01 0.0000000e+00 
-8.2285414e+00 -5.6981170e-01 0.0000000e+00 
-7.9257112e+00 9.9521565e-01 0.0000000e+00 
-7.8869467e+00 2.0697355e+00 0.0000000e+00 
-7.8969755e+00 -4.3802951e-02 0.0000000e+00 
-7.6123357e+00 1.5226223e+00 0.0000000e+00 
-7.8810077e+00 -1.1020106e+00 0.0000000e+00 
-7.5669594e+00 4.7064954e-01 0.0000000e+00 
-7.5939817e+00 -5.8062750e-01 0.0000000e+00 
-7.2558017e+00 2.0208404e+00 0.0000000e+00 
-7.2688441e+00 -6.9001667e-02 0.0000000e+00 
-7.1168070e+00 9.3275052e-01 0.0000000e+00 
-6.9965577e+00 1.5279281e+00 0.0000000e+00 
-7.2465954e+00 -1.0676668e+00 0.0000000e+00 
-7.0360007e+00 4.0200087e-01 0.0000000e+00 
-6.9748716e+00 -5.9238547e-01 0.0000000e+00 
-6.6412973e+00 1.9657972e+00 0.0000000e+00 
-6.6521587e+00 -6.7148224e-02 0.0000000e+00 
-6.5102897e+00 5.0220168e-01 0.0000000e+00 
-6.6292276e+00 -1.0302333e+00 0.0000000e+00 
-6.3746157e+00 1.2001013e+00 0.0000000e+00 
-6.3780913e+00 -4.7742051e-01 0.0000000e+00 
-6.0435286e+00 1.9110053e+00 0.0000000e+00 
-6.0780001e+00 1.2865157e-02 0.0000000e+00 
-5.8435330e+00 5.3797626e-01 0.0000000e+00 
-6.0304089e+00 -9.9241734e-01 0.0000000e+00 
-5.7923875e+00 -4.7450250e-01 0.0000000e+00 
-5.6230493e+00 1.0519968e+00 0.0000000e+00 
-5.4694624e+00 1.8543270e+00 0.0000000e+00 
-5.4976578e+00 2.0561382e-02 0.0000000e+00 
-5.4512434e+00 -9.5191371e-01 0.0000000e+00 
-5.2152982e+00 4.9876693e-01 0.0000000e+00 
-5.1708369e+00 1.3394227e+00 0.0000000e+00 
-5.2211332e+00 -4.5396164e-01 0.0000000e+00 
-4.9126406e+00 1.7862810e+00 0.0000000e+00 
-4.9367700e+00 2.3617785e-02 0.0000000e+00 
-4.8812547e+00 8.4886265e-01 0.0000000e+00 
-4.7302423e+00 4.5088464e-01 0.0000000e+00 
-4.8934307e+00 -9.0938026e-01 0.0000000e+00 
-4.6241145e+00 1.2897248e+00 0.0000000e+00 
-4.6712599e+00 -4.3116379e-01 0.0000000e+00 
-4.3782687e+00 1.7145952e+00 0.0000000e+00 
-4.3468547e+00 8.1749672e-01 0.0000000e+00 
-4.3309746e+00 1.6673511e-01 0.0000000e+00 
-4.3570700e+00 -8.6500907e-01 0.0000000e+00 
-4.1004381e+00 1.2365530e+00 0.0000000e+00 
-4.0795093e+00 -3.9094833e-01 0.0000000e+00 
-3.8675873e+00 1.6385987e+00 0.0000000e+00 
-3.8433962e+00 6.3979834e-01 0.0000000e+00 
-3.7987165e+00 2.8226895e-02 0.0000000e+00 
-3.8467679e+00 -8.1910139e-01 0.0000000e+00 
-3.6022856e+00 1.1822345e+00 0.0000000e+00 
-3.5854845e+00 -3.7865031e-01 0.0000000e+00 
-3.4807055e+00 3.4164444e-01 0.0000000e+00 
-3.3841646e+00 1.5578252e+00 0.0000000e+00 
-3.3474844e+00 7.4790734e-01 0.0000000e+00 
-3.3389413e+00 -5.2277602e-02 0.0000000e+00 
-3.3605258e+00 -7.7082419e-01 0.0000000e+00 
-3.1299055e+00 1.1205302e+00 0.0000000e+00 
-3.1056292e+00 3.4049323e-01 0.0000000e+00 
-3.1104259e+00 -3.5088679e-01 0.0000000e+00 
-2.9262319e+00 1.4709269e+00 0.0000000e+00 
-2.8878860e+00 7.0909721e-01 0.0000000e+00 
-2.8773561e+00 -4.4377971e-02 0.0000000e+00 
-2.8998175e+00 -7.2057158e-01 0.0000000e+00 
-2.6849079e+00 1.0553186e+00 0.0000000e+00 
-2.6589797e+00 3.2370365e-01 0.0000000e+00 
-2.6627269e+00 -3.2223141e-01 0.0000000e+00 
-2.4967391e+00 1.3783728e+00 0.0000000e+00 
-2.4560330e+00 6.6693002e-01 0.0000000e+00 
-2.4445815e+00 -3.7585746e-02 0.0000000e+00 
-2.4667821e+00 -6.6900730e-01 0.0000000e+00 
-2.2688746e+00 9.8563391e-01 0.0000000e+00 
-2.2408302e+00 3.0546013e-01 0.0000000e+00 
-2.2464635e+00 -3.7197363e-01 0.0000000e+00 
-2.0971351e+00 1.2797267e+00 0.0000000e+00 
-2.0540886e+00 6.2132752e-01 0.0000000e+00 
-2.0411971e+00 -2.9631570e-02 0.0000000e+00 
-2.0626030e+00 -6.1297005e-01 0.0000000e+00 
-1.8836505e+00 9.1142040e-01 0.0000000e+00 
-1.8537039e+00 2.8532621e-01 0.0000000e+00 
-1.8588511e+00 -3.3874992e-01 0.0000000e+00 
-1.7289335e+00 1.1747334e+00 0.0000000e+00 
-1.6836790e+00 5.7230443e-01 0.0000000e+00 
-1.6696813e+00 -2.2817612e-02 0.0000000e+00 
-1.6916595e+00 -5.5591875e-01 0.0000000e+00 
-1.5566416e+00 8.1827879e-01 0.0000000e+00 
-1.4993016e+00 2.6327050e-01 0.0000000e+00 
-1.5037915e+00 -3.0442131e-01 0.0000000e+00 
-1.3939236e+00 1.0657368e+00 0.0000000e+00 
-1.3470473e+00 5.2047712e-01 0.0000000e+00 
-1.3316276e+00 -1.6812455e-02 0.0000000e+00 
-1.3538183e+00 -4.9719340e-01 0.0000000e+00 
-1.2396764e+00 7.6069486e-01 0.0000000e+00 
-1.1786377e+00 2.3905994e-01 0.0000000e+00 
-1.1829731e+00 -2.7008662e-01 0.0000000e+00 
-1.0823048e+00 4.8015472e-01 0.0000000e+00 
-1.0937368e+00 9.4888943e-01 0.0000000e+00 
-1.0282544e+00 -1.0989486e-02 0.0000000e+00 
-1.0523505e+00 -4.3630943e-01 0.0000000e+00 
-9.5475841e-01 6.6990674e-01 0.0000000e+00 
-9.3308461e-01 2.3190305e-01 0.0000000e+00 
-9.1007596e-01 -1.8793243e-01 0.0000000e+00 
-8.1329352e-01 4.2611438e-01 0.0000000e+00 
-8.2853562e-01 8.2753789e-01 0.0000000e+00 
-7.7358663e-01 2.3728840e-02 0.0000000e+00 
-7.4362296e-01 6.1506510e-01 0.0000000e+00 
-7.8475285e-01 -3.7703294e-01 0.0000000e+00 
-6.8232447e-01 2.2986816e-01 0.0000000e+00 
-6.6226137e-01 -1.6982272e-01 0.0000000e+00 
-5.8918875e-01 3.8807285e-01 0.0000000e+00 
-6.0161221e-01 7.0123440e-01 0.0000000e+00 
-5.4155356e-01 2.1323599e-02 0.0000000e+00 
-5.5443370e-01 -3.1513417e-01 0.0000000e+00 
-5.1396692e-01 5.2317053e-01 0.0000000e+00 
-4.6720824e-01 1.9297585e-01 0.0000000e+00 
-4.4833943e-01 -1.2032872e-01 0.0000000e+00 
-3.9223501e-01 3.2180694e-01 0.0000000e+00 
-4.1184610e-01 5.6609225e-01 0.0000000e+00 
-3.5215771e-01 3.2536805e-02 0.0000000e+00 
-3.6192265e-01 -2.5367236e-01 0.0000000e+00 
-3.3728927e-01 4.1943526e-01 0.0000000e+00 
-2.8888389e-01 1.5597618e-01 0.0000000e+00 
-2.7346820e-01 -9.5297657e-02 0.0000000e+00 
-2.3579435e-01 2.4862683e-01 0.0000000e+00 
-2.6604122e-01 4.2644259e-01 0.0000000e+00 
-1.9632246e-01 2.7184172e-02 0.0000000e+00 
-2.0855805e-01 -1.8981808e-01 0.0000000e+00 
-1.9117878e-01 2.9617587e-01 0.0000000e+00 
-1.4257909e-01 1.1281725e-01 0.0000000e+00 
-1.3635762e-01 -6.7361683e-02 0.0000000e+00 
-1.0984971e-01 1.6068807e-01 0.0000000e+00 
-1.5811476e-01 2.7993867e-01 0.0000000e+00 
-8.1618138e-02 1.8223748e-02 0.0000000e+00 
-1.0831416e-01 1.8747257e-01 0.0000000e+00 
-9.4051346e-02 -1.2534040e-01 0.0000000e+00 
-5.1040951e-02 6.7791224e-02 0.0000000e+00 
-3.4403544e-02 -3.3393420e-02 0.0000000e+00 
-4.8554514e-02 8.5828781e-02 0.0000000e+00 
-8.3796464e-02 1.3207301e-01 0.0000000e+00 
-9.4641885e-03 1.0872900e-02 0.0000000e+00 
-2.4275087e-02 -5.8675859e-02 0.0000000e+00 
0.0000000e+00 0.0000000e+00 0.0000000e+00 
0.0000000e+00 0.0000000e+00 0.0000000e+00 
0.0000000e+00 0.0000000e+00 0.0000000e+00 
0.0000000e+00 0.0000000e+00 0.0000000e+00 
0.0000000e+00 0.0000000e+00 0.0000000e+00 
0.0000000e+00 0.0000000e+00 0.0000000e+00 
REACTION 3 340  float
-4.6483160e-06 9.6885050e-03 0.0000000e+00 
-1.0029764e-05 -9.6923752e-05 0.0000000e+00 
3.5827870e-05 1.9392433e-02 0.0000000e+00 
4.5796052e-05 -2.8101081e-04 0.0000000e+00 
6.3291286e-06 -3.1753231e-04 0.0000000e+00 
3.6875932e-05 1.9432144e-02 0.0000000e+00 
-9.9845143e-05 -2.4098170e-04 0.0000000e+00 
2.0045823e-06 -3.7360928e-04 0.0000000e+00 
-1.0817238e-04 -8.7393360e-04 0.0000000e+00 
-2.2813205e-04 -9.4804319e-04 0.0000000e+00 
-4.1394738e-05 1.9465603e-02 0.0000000e+00 
-3.0093067e-04 -6.0060591e-04 0.0000000e+00 
1.5631380e-05 -7.9855282e-04 0.0000000e+00 
-4.0298626e-05 -2.7966630e-04 0.0000000e+00 
-3.0331139e-04 -1.3092312e-03 0.0000000e+00 
-5.3340493e-05 -9.2987769e-04 0.0000000e+00 
-2.8996199e-04 -1.6605291e-03 0.0000000e+00 
-1.2132473e-05 1.9483062e-02 0.0000000e+00 
-7.1805087e-04 -1.2088254e-03 0.0000000e+00 
9.8717275e-05 -1.0512500e-03 0.0000000e+00 
-2.9718190e-05 -4.0144549e-04 0.0000000e+00 
-5.3891825e-04 -1.8109352e-03 0.0000000e+00 
-5.2862022e-05 -1.6149346e-03 0.0000000e+00 
-3.0163606e-04 -2.5701749e-03 0.0000000e+00 
-2.1606738e-02 9.7373342e-03 0.0000000e+00 
-1.8413271e-03 -2.4627147e-03 0.0000000e+00 
-4.3171797e-02 -1.4999392e-04 0.0000000e+00 
-9.3298389e-05 -2.3332112e-03 0.0000000e+00 
-4.3007236e-02 -2.9376175e-04 0.0000000e+00 
-1.3410264e-04 -1.7530927e-03 0.0000000e+00 
1.4351248e-05 -9.1670954e-04 0.0000000e+00 
-4.0218778e-04 -2.2837671e-03 0.0000000e+00 
-4.2710803e-02 -9.6092158e-04 0.0000000e+00 
2.3206540e-03 -4.4931346e-03 0.0000000e+00 
-5.0313105e-03 -1.6537136e-03 0.0000000e+00 
-4.0368323e-04 -1.9699272e-03 0.0000000e+00 
2.2119145e-04 -1.4261497e-03 0.0000000e+00 
9.9105368e-05 -2.0297808e-03 0.0000000e+00 
-4.2300116e-02 -1.6010922e-03 0.0000000e+00 
3.3650053e-04 -3.5325231e-03 0.0000000e+00 
1.2449165e-03 -2.2863308e-03 0.0000000e+00 
-4.4001630e-03 -6.8154000e-03 0.0000000e+00 
-2.0640189e-02 -2.2380918e-03 0.0000000e+00 
-1.2063666e-04 -2.4487944e-03 0.0000000e+00 
8.0761925e-04 -2.2787033e-03 0.0000000e+00 
1.0632586e-03 -5.6809993e-03 0.0000000e+00 
3.3640992e-04 -2.6523503e-03 0.0000000e+00 
-6.9353804e-03 -7.3091937e-03 0.0000000e+00 
1.2156930e-03 -3.8859625e-03 0.0000000e+00 
7.7965151e-04 -2.5441949e-03 0.0000000e+00 
1.4665733e-03 -2.8618057e-03 0.0000000e+00 
3.1592455e-03 -6.7104264e-03 0.0000000e+00 
1.4471071e-03 -3.5880290e-03 0.0000000e+00 
-1.8568742e-04 -4.3162489e-03 0.0000000e+00 
7.2056125e-04 -3.1214850e-03 0.0000000e+00 
-9.7926175e-03 -8.2734292e-03 0.0000000e+00 
2.2098126e-03 -3.3027891e-03 0.0000000e+00 
1.7149315e-03 -4.3758582e-03 0.0000000e+00 
5.5827866e-03 -7.6869661e-03 0.0000000e+00 
-6.6006556e-04 -5.2606361e-03 0.0000000e+00 
8.3076657e-04 -3.4979356e-03 0.0000000e+00 
-1.3342204e-02 -8.6173853e-03 0.0000000e+00 
3.0026282e-03 -4.1895462e-03 0.0000000e+00 
2.0178426e-03 -5.2130069e-03 0.0000000e+00 
8.1670210e-03 -8.2243364e-03 0.0000000e+00 
-1.3447895e-03 -6.3615483e-03 0.0000000e+00 
9.1285416e-04 -4.2760852e-03 0.0000000e+00 
-1.7623017e-02 -1.0521479e-02 0.0000000e+00 
4.1195774e-03 -4.5579062e-03 0.0000000e+00 
2.7749480e-03 -5.7880157e-03 0.0000000e+00 
1.1435321e-02 -9.1715856e-03 0.0000000e+00 
-1.9650930e-03 -7.4037430e-03 0.0000000e+00 
1.1289928e-03 -4.5044445e-03 0.0000000e+00 
-2.2097318e-02 -9.5670437e-03 0.0000000e+00 
5.2156504e-03 -6.1190380e-03 0.0000000e+00 
3.8771746e-03 -6.5823533e-03 0.0000000e+00 
1.3652851e-02 -6.4983447e-03 0.0000000e+00 
-3.5070479e-03 -8.6551541e-03 0.0000000e+00 
2.5284190e-03 -5.1223505e-03 0.0000000e+00 
5.8651562e-03 -8.0604330e-03 0.0000000e+00 
-2.3369536e-02 -9.9556912e-03 0.0000000e+00 
5.6480188e-03 -6.5810960e-03 0.0000000e+00 
-4.1349190e-03 -8.9367367e-03 0.0000000e+00 
1.1165144e-02 -1.5274082e-02 0.0000000e+00 
1.7645743e-03 -4.6273898e-03 0.0000000e+00 
1.5991870e-02 -5.3656492e-03 0.0000000e+00 
4.2343405e-03 -7.7541373e-03 0.0000000e+00 
5.8407127e-03 -5.5494844e-03 0.0000000e+00 
-4.2103577e-02 -9.9206436e-03 0.0000000e+00 
-4.3873764e-03 -9.1972239e-03 0.0000000e+00 
1.0996246e-02 -5.6615076e-03 0.0000000e+00 
2.1914011e-03 -5.7366746e-03 0.0000000e+00 
2.3371272e-02 -9.5843337e-03 0.0000000e+00 
4.8384331e-03 -7.7788695e-03 0.0000000e+00 
7.4121677e-03 -5.9923022e-03 0.0000000e+00 
-4.8107751e-02 -7.1798093e-03 0.0000000e+00 
-5.9675863e-03 -8.6471559e-03 0.0000000e+00 
1.6136417e-02 -8.7299170e-03 0.0000000e+00 
3.5170394e-03 -2.9491521e-03 0.0000000e+00 
2.4751671e-02 -1.0659596e-02 0.0000000e+00 
2.8094961e-03 -8.9443708e-03 0.0000000e+00 
1.1579933e-02 -5.5732070e-03 0.0000000e+00 
-5.7390664e-02 -8.5002426e-03 0.0000000e+00 
-6.3167429e-03 -9.5190220e-03 0.0000000e+00 
1.9389462e-02 -7.9593360e-03 0.0000000e+00 
3.7805578e-03 -6.5000211e-03 0.0000000e+00 
2.9810948e-02 -1.1331396e-02 0.0000000e+00 
3.1803148e-03 -8.5799871e-03 0.0000000e+00 