# vtk DataFile Version 4.0
vtk output
ASCII
DATASET UNSTRUCTURED_GRID
POINTS 340 float
1.0000000e+00 1.0000000e+01 0.0000000e+00 
1.0000000e+00 9.8000002e+00 0.0000000e+00 
8.0000001e-01 1.0000000e+01 0.0000000e+00 
7.2964472e-01 9.8093147e+00 0.0000000e+00 
8.4182751e-01 9.6382694e+00 0.0000000e+00 
6.0000002e-01 1.0000000e+01 0.0000000e+00 
1.0000000e+00 9.6000004e+00 0.0000000e+00 
5.0000000e-01 9.8267946e+00 0.0000000e+00 
6.3604087e-01 9.5908260e+00 0.0000000e+00 
8.4263843e-01 9.4342804e+00 0.0000000e+00 
4.0000001e-01 1.0000000e+01 0.0000000e+00 
1.0000000e+00 9.3999996e+00 0.0000000e+00 
4.0534732e-01 9.6340141e+00 0.0000000e+00 
2.7881753e-01 9.8140564e+00 0.0000000e+00 
6.7177695e-01 9.3303623e+00 0.0000000e+00 
4.9604306e-01 9.4256926e+00 0.0000000e+00 
8.4713864e-01 9.2343493e+00 0.0000000e+00 
2.0000000e-01 1.0000000e+01 0.0000000e+00 
1.0000000e+00 9.1999998e+00 0.0000000e+00 
3.0000001e-01 9.4803848e+00 0.0000000e+00 
1.6755788e-01 9.6235323e+00 0.0000000e+00 
6.7617422e-01 9.1307087e+00 0.0000000e+00 
4.8477495e-01 9.2195473e+00 0.0000000e+00 
8.5255039e-01 9.0345669e+00 0.0000000e+00 
0.0000000e+00 1.0000000e+01 0.0000000e+00 
1.0000000e+00 9.0000000e+00 0.0000000e+00 
0.0000000e+00 9.8000002e+00 0.0000000e+00 
2.2804837e-01 9.2825413e+00 0.0000000e+00 
0.0000000e+00 9.6000004e+00 0.0000000e+00 
5.0581944e-01 9.0259790e+00 0.0000000e+00 
3.3078760e-01 9.1219988e+00 0.0000000e+00 
6.8160146e-01 8.9308100e+00 0.0000000e+00 
0.0000000e+00 9.3999996e+00 0.0000000e+00 
8.5683817e-01 8.8346405e+00 0.0000000e+00 
1.0000000e+00 8.8000002e+00 0.0000000e+00 
1.7320508e-01 9.1000004e+00 0.0000000e+00 
3.3639798e-01 8.9224386e+00 0.0000000e+00 
5.1166874e-01 8.8261728e+00 0.0000000e+00 
0.0000000e+00 9.1999998e+00 0.0000000e+00 
6.8573916e-01 8.7312880e+00 0.0000000e+00 
1.7320508e-01 8.8999996e+00 0.0000000e+00 
1.0000000e+00 8.6000004e+00 0.0000000e+00 
0.0000000e+00 9.0000000e+00 0.0000000e+00 
3.4077987e-01 8.7225189e+00 0.0000000e+00 
5.1553297e-01 8.6263428e+00 0.0000000e+00 
7.3636049e-01 8.5193882e+00 0.0000000e+00 
0.0000000e+00 8.8000002e+00 0.0000000e+00 
1.0000000e+00 8.3999996e+00 0.0000000e+00 
1.7061394e-01 8.6176825e+00 0.0000000e+00 
3.4670532e-01 8.5231361e+00 0.0000000e+00 
5.2180642e-01 8.4266043e+00 0.0000000e+00 
7.4737626e-01 8.3175163e+00 0.0000000e+00 
0.0000000e+00 8.6000004e+00 0.0000000e+00 
1.7467257e-01 8.4178057e+00 0.0000000e+00 
3.5083947e-01 8.3232317e+00 0.0000000e+00 
1.0000000e+00 8.1999998e+00 0.0000000e+00 
5.2511263e-01 8.2268429e+00 0.0000000e+00 
0.0000000e+00 8.3999996e+00 0.0000000e+00 
7.5983411e-01 8.1149063e+00 0.0000000e+00 
1.8103610e-01 8.2179594e+00 0.0000000e+00 
3.5745192e-01 8.1241884e+00 0.0000000e+00 
1.0000000e+00 8.0000000e+00 0.0000000e+00 
5.3222626e-01 8.0272846e+00 0.0000000e+00 
0.0000000e+00 8.1999998e+00 0.0000000e+00 
7.5571120e-01 7.9173551e+00 0.0000000e+00 
1.8344399e-01 8.0151854e+00 0.0000000e+00 
3.6146736e-01 7.9243879e+00 0.0000000e+00 
1.0000000e+00 7.8000002e+00 0.0000000e+00 
5.3374660e-01 7.8279252e+00 0.0000000e+00 
0.0000000e+00 8.0000000e+00 0.0000000e+00 
7.6374203e-01 7.7163153e+00 0.0000000e+00 
1.9437179e-01 7.8156433e+00 0.0000000e+00 
3.7308612e-01 7.7272835e+00 0.0000000e+00 
1.0000000e+00 7.5999999e+00 0.0000000e+00 
5.4554766e-01 7.6299233e+00 0.0000000e+00 
0.0000000e+00 7.8000002e+00 0.0000000e+00 
7.4744660e-01 7.5226874e+00 0.0000000e+00 
2.0444529e-01 7.6206732e+00 0.0000000e+00 
3.8187346e-01 7.5294333e+00 0.0000000e+00 
0.0000000e+00 7.5999999e+00 0.0000000e+00 
1.0000000e+00 7.4000001e+00 0.0000000e+00 
5.2131432e-01 7.4393973e+00 0.0000000e+00 
1.9729473e-01 7.4537926e+00 0.0000000e+00 
7.0935732e-01 7.3327885e+00 0.0000000e+00 
3.5328710e-01 7.3320160e+00 0.0000000e+00 
8.4863865e-01 7.2198439e+00 0.0000000e+00 
0.0000000e+00 7.4000001e+00 0.0000000e+00 
5.3123343e-01 7.2420211e+00 0.0000000e+00 
1.0000000e+00 7.1999998e+00 0.0000000e+00 
1.7718045e-01 7.2569203e+00 0.0000000e+00 
6.6225648e-01 7.1541371e+00 0.0000000e+00 
3.4724638e-01 7.1689978e+00 0.0000000e+00 
8.3611876e-01 7.0656843e+00 0.0000000e+00 
0.0000000e+00 7.1999998e+00 0.0000000e+00 
4.9535713e-01 7.0473509e+00 0.0000000e+00 
1.0000000e+00 7.0000000e+00 0.0000000e+00 
1.7387313e-01 7.0734706e+00 0.0000000e+00 
6.6474640e-01 6.9560146e+00 0.0000000e+00 
3.4690949e-01 6.9773350e+00 0.0000000e+00 
8.4107113e-01 6.8641090e+00 0.0000000e+00 
0.0000000e+00 7.0000000e+00 0.0000000e+00 
5.2873749e-01 6.8578229e+00 0.0000000e+00 
1.0000000e+00 6.8000002e+00 0.0000000e+00 
1.7445621e-01 6.8769779e+00 0.0000000e+00 
6.7736709e-01 6.7575765e+00 0.0000000e+00 
3.4595537e-01 6.7778087e+00 0.0000000e+00 
8.3462298e-01 6.6689000e+00 0.0000000e+00 
0.0000000e+00 6.8000002e+00 0.0000000e+00 
5.0501287e-01 6.6597099e+00 0.0000000e+00 
1.0000000e+00 6.5999999e+00 0.0000000e+00 
1.8097465e-01 6.6789780e+00 0.0000000e+00 
6.6962856e-01 6.5595260e+00 0.0000000e+00 
3.2066780e-01 6.5871606e+00 0.0000000e+00 
8.3965176e-01 6.4710097e+00 0.0000000e+00 
0.0000000e+00 6.5999999e+00 0.0000000e+00 
4.8932999e-01 6.4914999e+00 0.0000000e+00 
1.0000000e+00 6.4000001e+00 0.0000000e+00 
1.4997987e-01 6.4839683e+00 0.0000000e+00 
6.6350561e-01 6.3954086e+00 0.0000000e+00 
3.2280096e-01 6.3877153e+00 0.0000000e+00 
8.3153027e-01 6.2889266e+00 0.0000000e+00 
0.0000000e+00 6.4000001e+00 0.0000000e+00 
4.9695736e-01 6.2927222e+00 0.0000000e+00 
1.0000000e+00 6.1999998e+00 0.0000000e+00 
1.6071729e-01 6.2864423e+00 0.0000000e+00 
6.5358984e-01 6.1999998e+00 0.0000000e+00 
3.3329538e-01 6.1896143e+00 0.0000000e+00 
8.1998920e-01 6.0895286e+00 0.0000000e+00 
0.0000000e+00 6.1999998e+00 0.0000000e+00 
4.8038477e-01 6.0999999e+00 0.0000000e+00 
1.7059118e-01 6.0888028e+00 0.0000000e+00 
1.0000000e+00 6.0000000e+00 0.0000000e+00 
6.5358984e-01 6.0000000e+00 0.0000000e+00 
3.0717969e-01 6.0000000e+00 0.0000000e+00 
8.2679492e-01 5.9000001e+00 0.0000000e+00 
0.0000000e+00 6.0000000e+00 0.0000000e+00 
4.8038477e-01 5.9000001e+00 0.0000000e+00 
1.3397460e-01 5.9000001e+00 0.0000000e+00 
1.0000000e+00 5.8000002e+00 0.0000000e+00 
6.5358984e-01 5.8000002e+00 0.0000000e+00 
3.0717969e-01 5.8000002e+00 0.0000000e+00 
8.2679492e-01 5.6999998e+00 0.0000000e+00 
0.0000000e+00 5.8000002e+00 0.0000000e+00 
4.8038477e-01 5.6999998e+00 0.0000000e+00 
1.3397460e-01 5.6999998e+00 0.0000000e+00 
1.0000000e+00 5.5999999e+00 0.0000000e+00 
6.5358984e-01 5.5999999e+00 0.0000000e+00 
3.2231969e-01 5.6385756e+00 0.0000000e+00 
8.2679492e-01 5.5000000e+00 0.0000000e+00 
0.0000000e+00 5.5999999e+00 0.0000000e+00 
4.8038477e-01 5.5000000e+00 0.0000000e+00 
1.7059118e-01 5.5111971e+00 0.0000000e+00 
1.0000000e+00 5.4000001e+00 0.0000000e+00 
6.5358984e-01 5.4000001e+00 0.0000000e+00 
3.3329538e-01 5.3896141e+00 0.0000000e+00 
8.2679492e-01 5.3000002e+00 0.0000000e+00 
0.0000000e+00 5.4000001e+00 0.0000000e+00 
4.8038477e-01 5.3000002e+00 0.0000000e+00 
1.7059118e-01 5.2888031e+00 0.0000000e+00 
1.0000000e+00 5.1999998e+00 0.0000000e+00 
6.5358984e-01 5.1999998e+00 0.0000000e+00 
3.0717969e-01 5.1999998e+00 0.0000000e+00 
8.2679492e-01 5.0999999e+00 0.0000000e+00 
0.0000000e+00 5.1999998e+00 0.0000000e+00 
4.8038477e-01 5.0999999e+00 0.0000000e+00 
1.3397460e-01 5.0999999e+00 0.0000000e+00 
1.0000000e+00 5.0000000e+00 0.0000000e+00 
6.5358984e-01 5.0000000e+00 0.0000000e+00 
3.0717969e-01 5.0000000e+00 0.0000000e+00 
0.0000000e+00 5.0000000e+00 0.0000000e+00 
8.2679492e-01 4.9000001e+00 0.0000000e+00 
4.8038477e-01 4.9000001e+00 0.0000000e+00 
1.3397460e-01 4.9000001e+00 0.0000000e+00 
1.0000000e+00 4.8000002e+00 0.0000000e+00 
6.5358984e-01 4.8000002e+00 0.0000000e+00 
3.0717969e-01 4.8000002e+00 0.0000000e+00 
0.0000000e+00 4.8000002e+00 0.0000000e+00 
8.2679492e-01 4.6999998e+00 0.0000000e+00 
4.8038477e-01 4.6999998e+00 0.0000000e+00 
1.3397460e-01 4.6999998e+00 0.0000000e+00 
1.0000000e+00 4.5999999e+00 0.0000000e+00 
6.5358984e-01 4.5999999e+00 0.0000000e+00 
3.0717969e-01 4.5999999e+00 0.0000000e+00 
0.0000000e+00 4.5999999e+00 0.0000000e+00 
8.2679492e-01 4.5000000e+00 0.0000000e+00 
4.8038477e-01 4.5000000e+00 0.0000000e+00 
1.3397460e-01 4.5000000e+00 0.0000000e+00 
1.0000000e+00 4.4000001e+00 0.0000000e+00 
6.5358984e-01 4.4000001e+00 0.0000000e+00 
3.0717969e-01 4.4000001e+00 0.0000000e+00 
8.3046603e-01 4.3165317e+00 0.0000000e+00 
0.0000000e+00 4.4000001e+00 0.0000000e+00 
4.8038477e-01 4.3000002e+00 0.0000000e+00 
1.7059118e-01 4.3111973e+00 0.0000000e+00 
6.6123927e-01 4.2184782e+00 0.0000000e+00 
1.0000000e+00 4.1999998e+00 0.0000000e+00 
3.3329538e-01 4.2103858e+00 0.0000000e+00 
8.3268768e-01 4.1176395e+00 0.0000000e+00 
0.0000000e+00 4.1999998e+00 0.0000000e+00 
4.9695736e-01 4.1072779e+00 0.0000000e+00 
1.6071729e-01 4.1135573e+00 0.0000000e+00 
1.0000000e+00 4.0000000e+00 0.0000000e+00 
3.2280096e-01 4.0122848e+00 0.0000000e+00 
6.4947557e-01 3.9632084e+00 0.0000000e+00 
8.4590596e-01 3.9203768e+00 0.0000000e+00 
0.0000000e+00 4.0000000e+00 0.0000000e+00 
4.7627035e-01 3.9377375e+00 0.0000000e+00 
1.4997987e-01 3.9160316e+00 0.0000000e+00 
1.0000000e+00 3.8000000e+00 0.0000000e+00 
3.2066780e-01 3.8128395e+00 0.0000000e+00 
5.1165128e-01 3.7661045e+00 0.0000000e+00 
0.0000000e+00 3.8000000e+00 0.0000000e+00 
7.4880123e-01 3.7184730e+00 0.0000000e+00 
1.8097465e-01 3.7210221e+00 0.0000000e+00 
1.0000000e+00 3.5999999e+00 0.0000000e+00 
3.4595537e-01 3.6221914e+00 0.0000000e+00 
5.2873749e-01 3.5421770e+00 0.0000000e+00 
0.0000000e+00 3.5999999e+00 0.0000000e+00 
1.7445621e-01 3.5230222e+00 0.0000000e+00 
7.1247655e-01 3.4632580e+00 0.0000000e+00 
1.0000000e+00 3.4000001e+00 0.0000000e+00 
3.4690949e-01 3.4226651e+00 0.0000000e+00 
0.0000000e+00 3.4000001e+00 0.0000000e+00 
5.1989859e-01 3.3223066e+00 0.0000000e+00 
8.2679492e-01 3.3000000e+00 0.0000000e+00 
1.7356591e-01 3.3231418e+00 0.0000000e+00 
1.0000000e+00 3.2000000e+00 0.0000000e+00 
3.4647828e-01 3.2226951e+00 0.0000000e+00 
6.5358984e-01 3.2000000e+00 0.0000000e+00 
5.0604391e-01 3.1465836e+00 0.0000000e+00 
[...]
POINT_DATA 340
FIELD FieldData 3
DISPLACEMENT 3 340  float
-9.5237436e-07 6.6396289e-08 0.0000000e+00 
-9.2612015e-07 6.6377652e-08 0.0000000e+00 
-9.5236805e-07 4.0146539e-08 0.0000000e+00 
-9.2733478e-07 3.0896636e-08 0.0000000e+00 
-9.0486964e-07 4.5594891e-08 0.0000000e+00 
-9.5236652e-07 1.3904041e-08 0.0000000e+00 
-8.9984940e-07 6.6355483e-08 0.0000000e+00 
-9.2963649e-07 7.7777290e-10 0.0000000e+00 
-8.9863192e-07 1.8600067e-08 0.0000000e+00 
-8.7806092e-07 4.5665900e-08 0.0000000e+00 
-9.5238050e-07 -1.2333598e-08 0.0000000e+00 
-8.7357040e-07 6.6313625e-08 0.0000000e+00 
-9.0432042e-07 -1.1638797e-08 0.0000000e+00 
-9.2798649e-07 -2.8235613e-08 0.0000000e+00 
-8.6439235e-07 2.3249171e-08 0.0000000e+00 
-8.7692973e-07 2.4104277e-10 0.0000000e+00 
-8.5178380e-07 4.6201936e-08 0.0000000e+00 
-9.5240841e-07 -3.8578559e-08 0.0000000e+00 
-8.4729299e-07 6.6243416e-08 0.0000000e+00 
-8.8414151e-07 -2.5445170e-08 0.0000000e+00 
-9.0297698e-07 -4.2831779e-08 0.0000000e+00 
-8.3814803e-07 2.3787514e-08 0.0000000e+00 
-8.4982725e-07 -1.2384752e-09 0.0000000e+00 
-8.2553748e-07 4.6833115e-08 0.0000000e+00 
-9.5244019e-07 -6.4830402e-08 0.0000000e+00 
-8.2103082e-07 6.6135989e-08 0.0000000e+00 
-9.2618444e-07 -6.4831021e-08 0.0000000e+00 
-8.5813980e-07 -3.4859163e-08 0.0000000e+00 
-8.9991619e-07 -6.4826693e-08 0.0000000e+00 
-8.2438135e-07 1.5021920e-09 0.0000000e+00 
-8.3701650e-07 -2.1387740e-08 0.0000000e+00 
-8.1189023e-07 2.4442850e-08 0.0000000e+00 
-8.7363230e-07 -6.4806230e-08 0.0000000e+00 
-7.9930339e-07 4.7287319e-08 0.0000000e+00 
-7.9482169e-07 6.5975129e-08 0.0000000e+00 
-8.3414869e-07 -4.2006910e-08 0.0000000e+00 
-8.1079116e-07 -2.0625295e-08 0.0000000e+00 
-7.9814998e-07 2.2500077e-09 0.0000000e+00 
-8.4734671e-07 -6.4764940e-08 0.0000000e+00 
-7.8572714e-07 2.4912621e-08 0.0000000e+00 
-8.0786606e-07 -4.1946056e-08 0.0000000e+00 
-7.6863626e-07 6.5780078e-08 0.0000000e+00 
-8.2104458e-07 -6.4687292e-08 0.0000000e+00 
-7.8456776e-07 -2.0018916e-08 0.0000000e+00 
-7.7196910e-07 2.7343274e-09 0.0000000e+00 
-7.5801898e-07 3.1386598e-08 0.0000000e+00 
-7.9478610e-07 -6.4564986e-08 0.0000000e+00 
-7.4254831e-07 6.5553969e-08 0.0000000e+00 
-7.7086452e-07 -4.2158860e-08 0.0000000e+00 
-7.5847743e-07 -1.9207782e-08 0.0000000e+00 
-7.4587501e-07 3.5186667e-09 0.0000000e+00 
-7.3170463e-07 3.2680465e-08 0.0000000e+00 
-7.6860141e-07 -6.4404681e-08 0.0000000e+00 
-7.4476316e-07 -4.1507665e-08 0.0000000e+00 
-7.3240972e-07 -1.8620769e-08 0.0000000e+00 
-7.1654915e-07 6.5279750e-08 0.0000000e+00 
-7.1987273e-07 3.9132453e-09 0.0000000e+00 
-7.4250465e-07 -6.4200066e-08 0.0000000e+00 
-7.0539937e-07 3.4130579e-08 0.0000000e+00 
-7.1876093e-07 -4.0534566e-08 0.0000000e+00 
-7.0655642e-07 -1.7706055e-08 0.0000000e+00 
-6.9066363e-07 6.4955614e-08 0.0000000e+00 
-6.9400670e-07 4.7908237e-09 0.0000000e+00 
-7.1650612e-07 -6.3953614e-08 0.0000000e+00 
-6.7986520e-07 3.3419354e-08 0.0000000e+00 
-6.9249415e-07 -4.0049056e-08 0.0000000e+00 
-6.8072416e-07 -1.7118868e-08 0.0000000e+00 
-6.6490850e-07 6.4591383e-08 0.0000000e+00 
-6.6829330e-07 4.9445337e-09 0.0000000e+00 
-6.9062247e-07 -6.3664132e-08 0.0000000e+00 
-6.5402349e-07 3.4240966e-08 0.0000000e+00 
-6.6677234e-07 -3.8447826e-08 0.0000000e+00 
-6.5537097e-07 -1.5554866e-08 0.0000000e+00 
-6.3930548e-07 6.4176838e-08 0.0000000e+00 
-6.4289890e-07 6.3955423e-09 0.0000000e+00 
-6.6487183e-07 -6.3335101e-08 0.0000000e+00 
-6.2927455e-07 3.1944349e-08 0.0000000e+00 
-6.4177630e-07 -3.6945075e-08 0.0000000e+00 
-6.3007275e-07 -1.4358153e-08 0.0000000e+00 
-6.3927104e-07 -6.2965725e-08 0.0000000e+00 
-6.1385236e-07 6.3734042e-08 0.0000000e+00 
-6.1861112e-07 3.2693546e-09 0.0000000e+00 
-6.2051311e-07 -3.7649077e-08 0.0000000e+00 
-6.0514913e-07 2.6903539e-08 0.0000000e+00 
-6.0501179e-07 -1.7859948e-08 0.0000000e+00 
-5.9097243e-07 4.4265402e-08 0.0000000e+00 
-6.1383190e-07 -6.2543315e-08 0.0000000e+00 
-5.9363333e-07 4.4758650e-09 0.0000000e+00 
-5.8861440e-07 6.3228462e-08 0.0000000e+00 
-5.9560091e-07 -3.9908027e-08 0.0000000e+00 
-5.8259798e-07 2.0820501e-08 0.0000000e+00 
-5.8445465e-07 -1.8513326e-08 0.0000000e+00 
-5.7160401e-07 4.2400124e-08 0.0000000e+00 
-5.8857825e-07 -6.2066277e-08 0.0000000e+00 
-5.6917605e-07 -2.2191859e-11 0.0000000e+00 
-5.6356305e-07 6.2667567e-08 0.0000000e+00 
-5.7255539e-07 -4.0029114e-08 0.0000000e+00 
-5.5780981e-07 2.0942990e-08 0.0000000e+00 
-5.6045604e-07 -1.8401401e-08 0.0000000e+00 
-5.4650445e-07 4.2604469e-08 0.0000000e+00 
-5.6353093e-07 -6.1544320e-08 0.0000000e+00 
-5.4557256e-07 4.0858410e-09 0.0000000e+00 
-5.3874146e-07 6.2058255e-08 0.0000000e+00 
-5.4806662e-07 -3.9612758e-08 0.0000000e+00 
-5.3321702e-07 2.2271392e-08 0.0000000e+00 
-5.3569607e-07 -1.8357214e-08 0.0000000e+00 
-5.2241285e-07 4.1380883e-08 0.0000000e+00 
-5.3870735e-07 -6.0977442e-08 0.0000000e+00 
-5.2113035e-07 1.1433249e-09 0.0000000e+00 
-5.1416089e-07 6.1406737e-08 0.0000000e+00 
-5.2361861e-07 -3.8435498e-08 0.0000000e+00 
-5.0890770e-07 2.1096248e-08 0.0000000e+00 
-5.1227801e-07 -2.1265743e-08 0.0000000e+00 
-4.9825280e-07 4.1533749e-08 0.0000000e+00 
-5.1413258e-07 -6.0374830e-08 0.0000000e+00 
-5.0057139e-07 -7.7116136e-10 0.0000000e+00 
-4.8984418e-07 6.0704330e-08 0.0000000e+00 
-4.9981179e-07 -4.1792667e-08 0.0000000e+00 
-4.8895691e-07 2.0159041e-08 0.0000000e+00 
-4.8802207e-07 -2.0779279e-08 0.0000000e+00 
-4.7624826e-07 4.0111360e-08 0.0000000e+00 
-4.8980633e-07 -5.9698941e-08 0.0000000e+00 
-4.7652640e-07 1.3803161e-10 0.0000000e+00 
-4.6581030e-07 5.9961032e-08 0.0000000e+00 
-4.7593207e-07 -4.0041648e-08 0.0000000e+00 
-4.6545327e-07 1.8725432e-08 0.0000000e+00 
-4.6420388e-07 -1.9293989e-08 0.0000000e+00 
-4.5242317e-07 3.8233974e-08 0.0000000e+00 
-4.6577307e-07 -5.8994431e-08 0.0000000e+00 
-4.5349307e-07 -1.8349949e-09 0.0000000e+00 
-4.5232136e-07 -3.8386631e-08 0.0000000e+00 
-4.4207519e-07 5.9183364e-08 0.0000000e+00 
-4.4169428e-07 1.8475179e-08 0.0000000e+00 
-4.4170193e-07 -2.2135179e-08 0.0000000e+00 
-4.3007742e-07 3.8528238e-08 0.0000000e+00 
-4.4203813e-07 -5.8260074e-08 0.0000000e+00 
-4.2988682e-07 -1.8199823e-09 0.0000000e+00 
-4.3008882e-07 -4.2179220e-08 0.0000000e+00 
-4.1865277e-07 5.8349812e-08 0.0000000e+00 
-4.1825240e-07 1.8206830e-08 0.0000000e+00 
-4.1825970e-07 -2.1841885e-08 0.0000000e+00 
-4.0681053e-07 3.7964639e-08 0.0000000e+00 
-4.1860639e-07 -5.7442190e-08 0.0000000e+00 
-4.0660871e-07 -1.8018088e-09 0.0000000e+00 
-4.0682670e-07 -4.1594777e-08 0.0000000e+00 
-3.9556920e-07 5.7473692e-08 0.0000000e+00 
-3.9514887e-07 1.7923847e-08 0.0000000e+00 
-3.9957601e-07 -1.9855165e-08 0.0000000e+00 
-3.8388822e-07 3.7371116e-08 0.0000000e+00 
-3.9553174e-07 -5.6579140e-08 0.0000000e+00 
-3.8367921e-07 -1.7864694e-09 0.0000000e+00 
-3.8514389e-07 -3.6854654e-08 0.0000000e+00 
-3.7283539e-07 5.6555805e-08 0.0000000e+00 
-3.7239775e-07 1.7626228e-08 0.0000000e+00 
-3.7121430e-07 -1.8246633e-08 0.0000000e+00 
-3.6132170e-07 3.6748979e-08 0.0000000e+00 
-3.7280768e-07 -5.5713095e-08 0.0000000e+00 
-3.6110342e-07 -1.7833033e-09 0.0000000e+00 
-3.6005270e-07 -3.6181113e-08 0.0000000e+00 
-3.5046560e-07 5.5594299e-08 0.0000000e+00 
-3.5000519e-07 1.7314493e-08 0.0000000e+00 
-3.5002799e-07 -2.0847001e-08 0.0000000e+00 
-3.3912573e-07 3.6095823e-08 0.0000000e+00 
-3.5044835e-07 -5.4794857e-08 0.0000000e+00 
-3.3890555e-07 -1.7576912e-09 0.0000000e+00 
-3.3917962e-07 -3.9593431e-08 0.0000000e+00 
-3.2847515e-07 5.4586447e-08 0.0000000e+00 
-3.2799682e-07 1.6991860e-08 0.0000000e+00 
-3.2803709e-07 -2.0475962e-08 0.0000000e+00 
-3.2849923e-07 -5.3791069e-08 0.0000000e+00 
-3.1731781e-07 3.5411873e-08 0.0000000e+00 
-3.1709595e-07 -1.7272891e-09 0.0000000e+00 
-3.1741607e-07 -3.8863529e-08 0.0000000e+00 
-3.0688071e-07 5.3529440e-08 0.0000000e+00 
-3.0638122e-07 1.6656385e-08 0.0000000e+00 
-3.0643972e-07 -2.0075827e-08 0.0000000e+00 
-3.0696023e-07 -5.2757741e-08 0.0000000e+00 
-2.9591078e-07 3.4692860e-08 0.0000000e+00 
-2.9568460e-07 -1.6899071e-09 0.0000000e+00 
-2.9603933e-07 -3.8081001e-08 0.0000000e+00 
-2.8569787e-07 5.2415565e-08 0.0000000e+00 
-2.8517212e-07 1.6305400e-08 0.0000000e+00 
-2.8524400e-07 -1.9647295e-08 0.0000000e+00 
-2.8579279e-07 -5.1665662e-08 0.0000000e+00 
-2.7492138e-07 3.3932391e-08 0.0000000e+00 
-2.7468633e-07 -1.6460997e-09 0.0000000e+00 
-2.7506422e-07 -3.7258641e-08 0.0000000e+00 
-2.6494982e-07 5.1233101e-08 0.0000000e+00 
-2.6439108e-07 1.5935624e-08 0.0000000e+00 
-2.6446773e-07 -1.9189402e-08 0.0000000e+00 
-2.5606204e-07 3.3565161e-08 0.0000000e+00 
-2.6506109e-07 -5.0481916e-08 0.0000000e+00 
-2.5412899e-07 -1.5976794e-09 0.0000000e+00 
-2.5560084e-07 -3.2719299e-08 0.0000000e+00 
-2.4592870e-07 1.6345782e-08 0.0000000e+00 
-2.4466212e-07 4.9961908e-08 0.0000000e+00 
-2.4515953e-07 -1.6143586e-08 0.0000000e+00 
-2.3606492e-07 3.2917757e-08 0.0000000e+00 
-2.4477816e-07 -4.9270909e-08 0.0000000e+00 
-2.3475727e-07 5.2327333e-11 0.0000000e+00 
-2.3575561e-07 -3.2839694e-08 0.0000000e+00 
-2.2489068e-07 4.8580773e-08 0.0000000e+00 
-2.2551788e-07 -1.6708011e-08 0.0000000e+00 
-2.2060955e-07 1.4638813e-08 0.0000000e+00 
-2.1679436e-07 3.3280507e-08 0.0000000e+00 
-2.2495139e-07 -4.7950110e-08 0.0000000e+00 
-2.1816669e-07 -1.8989497e-09 0.0000000e+00 
-2.1640913e-07 -3.2959093e-08 0.0000000e+00 
-2.0569078e-07 4.7032671e-08 0.0000000e+00 
-2.0624493e-07 -1.6400381e-08 0.0000000e+00 
-2.0171657e-07 1.4430976e-09 0.0000000e+00 
-2.0566551e-07 -4.6497465e-08 0.0000000e+00 
-1.9738063e-07 2.3267038e-08 0.0000000e+00 
-1.9775500e-07 -2.9090982e-08 0.0000000e+00 
-1.8700219e-07 4.5555186e-08 0.0000000e+00 
-1.8829874e-07 -1.3635560e-08 0.0000000e+00 
-1.8088183e-07 2.8514955e-09 0.0000000e+00 
-1.8698618e-07 -4.5000505e-08 0.0000000e+00 
-1.7948945e-07 -2.8689245e-08 0.0000000e+00 
-1.7392146e-07 1.8975005e-08 0.0000000e+00 
-1.6909323e-07 4.4058531e-08 0.0000000e+00 
-1.7020115e-07 -1.3082158e-08 0.0000000e+00 
-1.6895345e-07 -4.3374399e-08 0.0000000e+00 
-1.6128821e-07 1.9726589e-09 0.0000000e+00 
-1.5975763e-07 2.8148150e-08 0.0000000e+00 
-1.6170388e-07 -2.7692526e-08 0.0000000e+00 
-1.5167589e-07 4.2235659e-08 0.0000000e+00 
-1.5273378e-07 -1.2626950e-08 0.0000000e+00 
-1.5079584e-07 1.3085629e-08 0.0000000e+00 
-1.4618321e-07 8.0784562e-10 0.0000000e+00 
-1.5161328e-07 -4.1646850e-08 0.0000000e+00 
-1.4270132e-07 2.6946593e-08 0.0000000e+00 
-1.4460240e-07 -2.6576654e-08 0.0000000e+00 
-1.3502301e-07 4.0337184e-08 0.0000000e+00 
-1.3414900e-07 1.2492485e-08 0.0000000e+00 
-1.3384235e-07 -7.7229503e-09 0.0000000e+00 
-1.3496523e-07 -3.9822851e-08 0.0000000e+00 
-1.2639666e-07 2.5668010e-08 0.0000000e+00 
-1.2621832e-07 -2.4827759e-08 0.0000000e+00 
-1.1911671e-07 3.8356003e-08 0.0000000e+00 
-1.1851868e-07 7.3731368e-09 0.0000000e+00 
-1.1735332e-07 -1.1547717e-08 0.0000000e+00 
-1.1912836e-07 -3.7902712e-08 0.0000000e+00 
-1.1089380e-07 2.4406463e-08 0.0000000e+00 
-1.1090123e-07 -2.3953874e-08 0.0000000e+00 
-1.0735675e-07 -1.5090216e-09 0.0000000e+00 
-1.0408154e-07 3.6276482e-08 0.0000000e+00 
-1.0307627e-07 1.1192975e-08 0.0000000e+00 
-1.0313160e-07 -1.3558401e-08 0.0000000e+00 
-1.0406989e-07 -3.5856143e-08 0.0000000e+00 
-9.6211487e-08 2.2977037e-08 0.0000000e+00 
-9.5728169e-08 -1.1352019e-09 0.0000000e+00 
-9.6195784e-08 -2.2543182e-08 0.0000000e+00 
-8.9857700e-08 3.4075121e-08 0.0000000e+00 
-8.8814510e-08 1.0524222e-08 0.0000000e+00 
-8.8857163e-08 -1.2754221e-08 0.0000000e+00 
-8.9833243e-08 -3.3689506e-08 0.0000000e+00 
-8.2405577e-08 2.1495365e-08 0.0000000e+00 
-8.1902456e-08 -1.0761889e-09 0.0000000e+00 
-8.2379486e-08 -2.1064668e-08 0.0000000e+00 
-7.6533773e-08 3.1766461e-08 0.0000000e+00 
-7.5440667e-08 9.8106359e-09 0.0000000e+00 
-7.5492913e-08 -1.1919041e-08 0.0000000e+00 
-7.6503923e-08 -3.1448341e-08 0.0000000e+00 
-6.9514357e-08 1.9948523e-08 0.0000000e+00 
-6.8979617e-08 -1.0054872e-09 0.0000000e+00 
-6.9605264e-08 -2.1944519e-08 0.0000000e+00 
-6.4147457e-08 2.9347937e-08 0.0000000e+00 
-6.3004869e-08 9.0566088e-09 0.0000000e+00 
-6.3054642e-08 -1.1000445e-08 0.0000000e+00 
-6.4091658e-08 -2.9016643e-08 0.0000000e+00 
-5.7584931e-08 1.8338337e-08 0.0000000e+00 
-5.7024472e-08 -9.2927471e-10 0.0000000e+00 
-5.7685902e-08 -2.0194275e-08 0.0000000e+00 
-5.2758576e-08 2.6812529e-08 0.0000000e+00 
-5.1552835e-08 8.2634930e-09 0.0000000e+00 
-5.1605777e-08 -1.0050008e-08 0.0000000e+00 
-5.2697441e-08 -2.6522965e-08 0.0000000e+00 
-4.7470007e-08 1.6147897e-08 0.0000000e+00 
-4.6078934e-08 -8.4873480e-10 0.0000000e+00 
-4.6766257e-08 -1.8351733e-08 0.0000000e+00 
-4.2377184e-08 2.4230772e-08 0.0000000e+00 
-4.1126928e-08 7.4571984e-09 0.0000000e+00 
-4.1183718e-08 -9.0607708e-09 0.0000000e+00 
-4.2316245e-08 -2.3920551e-08 0.0000000e+00 
-3.7648874e-08 1.5158054e-08 0.0000000e+00 
-3.6171155e-08 -7.6752016e-10 0.0000000e+00 
-3.6892494e-08 -1.6444204e-08 0.0000000e+00 
-3.2929677e-08 6.9476598e-09 0.0000000e+00 
-3.3058932e-08 2.1489113e-08 0.0000000e+00 
-3.1829181e-08 -8.0191960e-09 0.0000000e+00 
-3.3029082e-08 -2.1165619e-08 0.0000000e+00 
-2.8805472e-08 1.3226761e-08 0.0000000e+00 
-2.8561232e-08 -2.2863192e-10 0.0000000e+00 
-2.8435965e-08 -1.3050298e-08 0.0000000e+00 
-2.4604972e-08 6.1870087e-09 0.0000000e+00 
-2.4861622e-08 1.8680838e-08 0.0000000e+00 
-2.3929028e-08 -6.0564402e-09 0.0000000e+00 
-2.2255110e-08 1.2322891e-08 0.0000000e+00 
-2.4810582e-08 -1.8420165e-08 0.0000000e+00 
-2.0770360e-08 6.5052719e-10 0.0000000e+00 
-2.0815087e-08 -1.1551168e-08 0.0000000e+00 
-1.7610555e-08 5.9512715e-09 0.0000000e+00 
-1.7777202e-08 1.5758904e-08 0.0000000e+00 
-1.6773637e-08 -5.1566071e-09 0.0000000e+00 
-1.7757923e-08 -1.5479882e-08 0.0000000e+00 
-1.5103383e-08 1.0563910e-08 0.0000000e+00 
-1.4114200e-08 5.2343546e-10 0.0000000e+00 
-1.4217018e-08 -9.0014991e-09 0.0000000e+00 
-1.1506096e-08 4.9492455e-09 0.0000000e+00 
-1.1892237e-08 1.2681518e-08 0.0000000e+00 
-1.0907856e-08 -3.7748333e-09 0.0000000e+00 
-1.1883738e-08 -1.2508696e-08 0.0000000e+00 
-9.6010755e-09 8.4579064e-09 0.0000000e+00 
-8.5945198e-09 4.7002063e-10 0.0000000e+00 
-8.8727923e-09 -7.1456348e-09 0.0000000e+00 
-6.6066161e-09 3.8203698e-09 0.0000000e+00 
-7.2730706e-09 9.5251567e-09 0.0000000e+00 
-6.1234053e-09 -2.8033875e-09 0.0000000e+00 
-7.2327491e-09 -9.3969899e-09 0.0000000e+00 
-4.9767670e-09 5.9849286e-09 0.0000000e+00 
-4.0601043e-09 4.2637033e-10 0.0000000e+00 
-4.7204702e-09 -5.1281868e-09 0.0000000e+00 
-2.7192268e-09 2.4712596e-09 0.0000000e+00 
-3.9329913e-09 6.2034027e-09 0.0000000e+00 
-2.6109130e-09 -1.8444610e-09 0.0000000e+00 
-2.4406006e-09 3.7496592e-09 0.0000000e+00 
-3.8671790e-09 -6.1562950e-09 0.0000000e+00 
-1.2498970e-09 3.0969594e-10 0.0000000e+00 
-1.5317252e-09 -2.6700708e-09 0.0000000e+00 
-8.5055191e-10 1.5515502e-09 0.0000000e+00 
-1.5717251e-09 2.8633182e-09 0.0000000e+00 
-3.0390881e-10 -5.1752130e-10 0.0000000e+00 
-1.6309676e-09 -2.8412679e-09 0.0000000e+00 
0.0000000e+00 0.0000000e+00 0.0000000e+00 
0.0000000e+00 0.0000000e+00 0.0000000e+00 
0.0000000e+00 0.0000000e+00 0.0000000e+00 
0.0000000e+00 0.0000000e+00 0.0000000e+00 
0.0000000e+00 0.0000000e+00 0.0000000e+00 
0.0000000e+00 0.0000000e+00 0.0000000e+00 
REACTION 3 340  float
-2.4890003e-06 -3.4283189e-06 0.0000000e+00 
-1.6608442e-06 3.2677065e-06 0.0000000e+00 
1.4343257e-06 -2.7030064e-06 0.0000000e+00 
3.1683740e-06 7.6695096e-07 0.0000000e+00 
-8.7692456e-08 3.4392988e-07 0.0000000e+00 
1.9982322e-06 -5.5581199e-07 0.0000000e+00 
-3.0843403e-06 -2.8033016e-08 0.0000000e+00 
-1.4611472e-06 2.1488484e-06 0.0000000e+00 
2.2517265e-06 -7.9571009e-08 0.0000000e+00 
4.3537416e-06 7.7988608e-07 0.0000000e+00 
-2.7378539e-06 -2.4349702e-06 0.0000000e+00 
-2.7479166e-06 -1.6220960e-06 0.0000000e+00 
-1.2041688e-06 1.3095936e-06 0.0000000e+00 
-1.4253901e-06 -2.8836740e-07 0.0000000e+00 
-1.2191282e-06 -2.0438001e-06 0.0000000e+00 
2.1837661e-06 -3.8544472e-06 0.0000000e+00 
-6.2521769e-07 1.6305337e-06 0.0000000e+00 
2.4793144e-06 -2.0691510e-07 0.0000000e+00 
-1.6923700e-06 1.1623773e-06 0.0000000e+00 
-9.2224400e-07 -2.4922149e-06 0.0000000e+00 
8.3286994e-07 4.1137660e-06 0.0000000e+00 
3.2906657e-06 -1.0111955e-06 0.0000000e+00 
-3.9906493e-07 2.3981956e-06 0.0000000e+00 
-2.4500582e-06 -2.4370793e-06 0.0000000e+00 
-6.1143464e-07 2.2785169e-07 0.0000000e+00 
-1.5457673e-06 6.6607384e-07 0.0000000e+00 
1.6771562e-06 -1.6683965e-06 0.0000000e+00 
-3.9838292e-06 1.2640854e-06 0.0000000e+00 
-3.4525507e-07 6.5629672e-07 0.0000000e+00 
9.5336361e-07 1.6522889e-06 0.0000000e+00 
-3.8217442e-07 -1.9817649e-06 0.0000000e+00 
4.4222047e-06 -4.3436410e-07 0.0000000e+00 
1.8414943e-06 -4.1584435e-06 0.0000000e+00 
-3.9648235e-06 1.6596175e-06 0.0000000e+00 
-6.4522936e-07 1.5010357e-07 0.0000000e+00 
3.0778065e-07 8.2192764e-07 0.0000000e+00 
-3.3027396e-07 2.9776720e-07 0.0000000e+00 
2.3099287e-06 -5.6016497e-06 0.0000000e+00 
2.3002133e-06 3.2088540e-06 0.0000000e+00 
8.7672348e-08 1.9845183e-06 0.0000000e+00 
1.6510799e-07 -9.3429048e-07 0.0000000e+00 
-1.1327812e-06 -1.0475534e-06 0.0000000e+00 
-2.5712245e-07 -1.2985562e-06 0.0000000e+00 
8.0722702e-07 9.7378665e-07 0.0000000e+00 
1.2552142e-06 4.6704619e-07 0.0000000e+00 
-9.4749663e-07 -1.7454325e-06 0.0000000e+00 
-5.5327388e-07 -6.5321609e-07 0.0000000e+00 
-3.8298663e-06 -2.8429627e-06 0.0000000e+00 
-2.2444373e-08 -1.5133348e-06 0.0000000e+00 
-1.6610295e-07 -1.5591074e-06 0.0000000e+00 
2.2667023e-06 -1.4260222e-06 0.0000000e+00 
-1.0837663e-06 5.9108856e-07 0.0000000e+00 
3.1236178e-07 6.5239611e-08 0.0000000e+00 
2.2265810e-06 2.5403522e-06 0.0000000e+00 
3.0067386e-06 1.1365423e-06 0.0000000e+00 
-1.9989600e-06 7.7417934e-07 0.0000000e+00 
1.0351316e-06 2.7621193e-06 0.0000000e+00 
-1.3784048e-06 1.1606587e-06 0.0000000e+00 
-1.2842311e-06 -4.3962785e-08 0.0000000e+00 
-8.1413862e-07 -1.4630547e-07 0.0000000e+00 
3.0000647e-06 2.8563406e-07 0.0000000e+00 
-9.4371535e-07 4.0563991e-06 0.0000000e+00 
1.8706683e-06 6.8991795e-07 0.0000000e+00 
-4.0474606e-07 -1.2102191e-07 0.0000000e+00 
-6.2869896e-07 -6.7105879e-07 0.0000000e+00 
-7.1634105e-07 7.9190852e-07 0.0000000e+00 
1.4087714e-06 1.5396938e-07 0.0000000e+00 
-1.0486018e-06 -1.1021620e-07 0.0000000e+00 
1.3417560e-06 5.3813261e-07 0.0000000e+00 
-3.3394784e-07 -1.8916421e-07 0.0000000e+00 
-9.4314112e-07 -5.4141265e-07 0.0000000e+00 
-1.7273327e-06 -1.4983368e-06 0.0000000e+00 
1.1471780e-06 4.1043847e-07 0.0000000e+00 
-1.3165975e-06 -2.7385088e-06 0.0000000e+00 
1.0933712e-06 -1.5102648e-06 0.0000000e+00 
1.1637929e-07 -2.7013357e-08 0.0000000e+00 
5.9785933e-08 -1.6854407e-06 0.0000000e+00 
-8.5313246e-07 1.1714613e-06 0.0000000e+00 
3.6773663e-06 -3.1648053e-06 0.0000000e+00 
-4.7148293e-07 -2.6677327e-07 0.0000000e+00 
-4.3119485e-06 -1.1076175e-06 0.0000000e+00 
-1.7631962e-07 -2.6924954e-07 0.0000000e+00 
-8.2636154e-07 -6.0708817e-07 0.0000000e+00 
2.4744049e-06 5.0244182e-07 0.0000000e+00 
2.1485880e-06 6.4577767e-07 0.0000000e+00 
-1.8342034e-06 1.4150396e-06 0.0000000e+00 
9.2719159e-07 2.3612478e-07 0.0000000e+00 
-2.6527056e-07 2.3563521e-06 0.0000000e+00 
-3.4380262e-06 -1.1502021e-07 0.0000000e+00 
1.1117424e-06 9.9757790e-07 0.0000000e+00 
2.3819002e-06 -2.8704690e-06 0.0000000e+00 
2.3070534e-07 6.5629627e-07 0.0000000e+00 
-1.2502346e-06 -1.8684045e-07 0.0000000e+00 
-4.0722801e-07 6.8865674e-08 0.0000000e+00 
2.5034099e-06 -1.1037146e-06 0.0000000e+00 
-2.8665331e-06 -7.7629458e-08 0.0000000e+00 
1.0187841e-06 2.1489626e-07 0.0000000e+00 
1.1790219e-06 6.7815762e-07 0.0000000e+00 
5.7191238e-07 -5.4961373e-07 0.0000000e+00 
-1.7176377e-06 2.7220956e-06 0.0000000e+00 
-1.7785756e-06 1.4452021e-07 0.0000000e+00 
1.9850386e-06 2.9296345e-07 0.0000000e+00 
-1.4232758e-06 1.2207865e-06 0.0000000e+00 
2.2413365e-06 -1.8758976e-06 0.0000000e+00 
-3.1439089e-07 3.8381086e-06 0.0000000e+00 
-5.2255257e-07 8.9323402e-07 0.0000000e+00 
7.0297074e-07 -1.0091929e-06 0.0000000e+00 
4.9865508e-07 -1.5394718e-06 0.0000000e+00 