# vtk DataFile Version 4.0
vtk output
ASCII
DATASET UNSTRUCTURED_GRID
POINTS 13 float
0.0000000e+00 1.0000000e+01 0.0000000e+00 
0.0000000e+00 9.8000002e+00 0.0000000e+00 
3.0717969e-01 6.0000000e+00 0.0000000e+00 
4.8038477e-01 5.9000001e+00 0.0000000e+00 
3.0717969e-01 5.8000002e+00 0.0000000e+00 
1.0000000e+00 4.0000001e-01 0.0000000e+00 
8.5265911e-01 3.5063028e-01 0.0000000e+00 
0.0000000e+00 4.0000001e-01 0.0000000e+00 
1.8371090e-01 2.8480327e-01 0.0000000e+00 
1.0000000e+00 2.0000000e-01 0.0000000e+00 
0.0000000e+00 2.0000000e-01 0.0000000e+00 
1.0000000e+00 0.0000000e+00 0.0000000e+00 
8.0000001e-01 0.0000000e+00 0.0000000e+00 

CELLS 4 16
3 4 3 2
3 8 7 10
3 5 6 9
3 12 11 9

CELL_TYPES 4
5
5
5
5
POINT_DATA 13
FIELD FieldData 3
DISPLACEMENT 3 13  float
-2.8605015e+00 -1.8988633e-01 0.0000000e+00 
-2.7816455e+00 -1.8988813e-01 0.0000000e+00 
-1.3265442e+00 -6.1787602e-02 0.0000000e+00 
-1.2910650e+00 -7.8289816e-04 0.0000000e+00 
-1.2561350e+00 -6.0929984e-02 0.0000000e+00 
-1.2094034e-02 1.9330282e-02 0.0000000e+00 
-7.5692129e-03 1.1847157e-02 0.0000000e+00 
-1.1308364e-02 -1.7761316e-02 0.0000000e+00 
-4.3990188e-03 -7.5304713e-03 0.0000000e+00 
-5.0193658e-03 8.9282226e-03 0.0000000e+00 
-4.6051899e-03 -8.2099522e-03 0.0000000e+00 
0.0000000e+00 0.0000000e+00 0.0000000e+00 
0.0000000e+00 0.0000000e+00 0.0000000e+00 
REACTION 3 13  float
4.5000000e+00 -0.0000000e+00 0.0000000e+00 
4.5000000e+00 -0.0000000e+00 0.0000000e+00 
-4.6238265e+00 -2.5686829e+01 0.0000000e+00 
-1.5561944e+00 -6.2376041e+00 0.0000000e+00 
6.1800208e+00 3.1924433e+01 0.0000000e+00 
9.0086412e+00 2.6001804e+02 0.0000000e+00 
-1.6700563e+01 4.8451071e+00 0.0000000e+00 
-8.4509354e+00 -3.7161612e+02 0.0000000e+00 
-3.0419207e+01 -2.3242146e+01 0.0000000e+00 
-5.0256207e+01 1.0057339e+02 0.0000000e+00 
3.8870144e+01 3.9485825e+02 0.0000000e+00 
2.1723360e+02 -4.2338464e+02 0.0000000e+00 
-1.5928548e+02 5.7948128e+01 0.0000000e+00 
VON_MISES_STRESS 1 13  float
0.0000000e+00
0.0000000e+00
3.4259824e+02
3.4259824e+02
3.4259824e+02
3.4995024e+03
3.4995024e+03
4.0296770e+03
4.0296770e+03
3.4005142e+03
4.0296770e+03
3.3283772e+03
3.3283772e+03
CELL_DATA 4
FIELD FieldData 0
