# vtk DataFile Version 4.0
vtk output
ASCII
DATASET UNSTRUCTURED_GRID
POINTS 340 float
1.0000000e+00 1.0000000e+01 0.0000000e+00 
1.0000000e+00 9.8000002e+00 0.0000000e+00 
8.0000001e-01 1.0000000e+01 0.0000000e+00 
7.2964472e-01 9.8093147e+00 0.0000000e+00 
8.4182751e-01 9.6382694e+00 0.0000000e+00 
6.0000002e-01 1.0000000e+01 0.0000000e+00 
1.0000000e+00 9.6000004e+00 0.0000000e+00 
5.0000000e-01 9.8267946e+00 0.0000000e+00 
6.3604087e-01 9.5908260e+00 0.0000000e+00 
8.4263843e-01 9.4342804e+00 0.0000000e+00 
4.0000001e-01 1.0000000e+01 0.0000000e+00 
1.0000000e+00 9.3999996e+00 0.0000000e+00 
4.0534732e-01 9.6340141e+00 0.0000000e+00 
2.7881753e-01 9.8140564e+00 0.0000000e+00 
6.7177695e-01 9.3303623e+00 0.0000000e+00 
4.9604306e-01 9.4256926e+00 0.0000000e+00 
8.4713864e-01 9.2343493e+00 0.0000000e+00 
2.0000000e-01 1.0000000e+01 0.0000000e+00 
1.0000000e+00 9.1999998e+00 0.0000000e+00 
3.0000001e-01 9.4803848e+00 0.0000000e+00 
1.6755788e-01 9.6235323e+00 0.0000000e+00 
6.7617422e-01 9.1307087e+00 0.0000000e+00 
4.8477495e-01 9.2195473e+00 0.0000000e+00 
8.5255039e-01 9.0345669e+00 0.0000000e+00 
0.0000000e+00 1.0000000e+01 0.0000000e+00 
1.0000000e+00 9.0000000e+00 0.0000000e+00 
0.0000000e+00 9.8000002e+00 0.0000000e+00 
2.2804837e-01 9.2825413e+00 0.0000000e+00 
0.0000000e+00 9.6000004e+00 0.0000000e+00 
5.0581944e-01 9.0259790e+00 0.0000000e+00 
3.3078760e-01 9.1219988e+00 0.0000000e+00 
6.8160146e-01 8.9308100e+00 0.0000000e+00 
0.0000000e+00 9.3999996e+00 0.0000000e+00 
8.5683817e-01 8.8346405e+00 0.0000000e+00 
1.0000000e+00 8.8000002e+00 0.0000000e+00 
1.7320508e-01 9.1000004e+00 0.0000000e+00 
3.3639798e-01 8.9224386e+00 0.0000000e+00 
5.1166874e-01 8.8261728e+00 0.0000000e+00 
0.0000000e+00 9.1999998e+00 0.0000000e+00 
6.8573916e-01 8.7312880e+00 0.0000000e+00 
1.7320508e-01 8.8999996e+00 0.0000000e+00 
1.0000000e+00 8.6000004e+00 0.0000000e+00 
0.0000000e+00 9.0000000e+00 0.0000000e+00 
3.4077987e-01 8.7225189e+00 0.0000000e+00 
5.1553297e-01 8.6263428e+00 0.0000000e+00 
7.3636049e-01 8.5193882e+00 0.0000000e+00 
0.0000000e+00 8.8000002e+00 0.0000000e+00 
1.0000000e+00 8.3999996e+00 0.0000000e+00 
1.7061394e-01 8.6176825e+00 0.0000000e+00 
3.4670532e-01 8.5231361e+00 0.0000000e+00 
5.2180642e-01 8.4266043e+00 0.0000000e+00 
7.4737626e-01 8.3175163e+00 0.0000000e+00 
0.0000000e+00 8.6000004e+00 0.0000000e+00 
1.7467257e-01 8.4178057e+00 0.0000000e+00 
3.5083947e-01 8.3232317e+00 0.0000000e+00 
1.0000000e+00 8.1999998e+00 0.0000000e+00 
5.2511263e-01 8.2268429e+00 0.0000000e+00 
0.0000000e+00 8.3999996e+00 0.0000000e+00 
7.5983411e-01 8.1149063e+00 0.0000000e+00 
1.8103610e-01 8.2179594e+00 0.0000000e+00 
3.5745192e-01 8.1241884e+00 0.0000000e+00 
1.0000000e+00 8.0000000e+00 0.0000000e+00 
5.3222626e-01 8.0272846e+00 0.0000000e+00 
0.0000000e+00 8.1999998e+00 0.0000000e+00 
7.5571120e-01 7.9173551e+00 0.0000000e+00 
1.8344399e-01 8.0151854e+00 0.0000000e+00 
3.6146736e-01 7.9243879e+00 0.0000000e+00 
1.0000000e+00 7.8000002e+00 0.0000000e+00 
5.3374660e-01 7.8279252e+00 0.0000000e+00 
0.0000000e+00 8.0000000e+00 0.0000000e+00 
7.6374203e-01 7.7163153e+00 0.0000000e+00 
1.9437179e-01 7.8156433e+00 0.0000000e+00 
3.7308612e-01 7.7272835e+00 0.0000000e+00 
1.0000000e+00 7.5999999e+00 0.0000000e+00 
5.4554766e-01 7.6299233e+00 0.0000000e+00 
0.0000000e+00 7.8000002e+00 0.0000000e+00 
7.4744660e-01 7.5226874e+00 0.0000000e+00 
2.0444529e-01 7.6206732e+00 0.0000000e+00 
3.8187346e-01 7.5294333e+00 0.0000000e+00 
0.0000000e+00 7.5999999e+00 0.0000000e+00 
1.0000000e+00 7.4000001e+00 0.0000000e+00 
5.2131432e-01 7.4393973e+00 0.0000000e+00 
1.9729473e-01 7.4537926e+00 0.0000000e+00 
7.0935732e-01 7.3327885e+00 0.0000000e+00 
3.5328710e-01 7.3320160e+00 0.0000000e+00 
8.4863865e-01 7.2198439e+00 0.0000000e+00 
0.0000000e+00 7.4000001e+00 0.0000000e+00 
5.3123343e-01 7.2420211e+00 0.0000000e+00 
1.0000000e+00 7.1999998e+00 0.0000000e+00 
1.7718045e-01 7.2569203e+00 0.0000000e+00 
6.6225648e-01 7.1541371e+00 0.0000000e+00 
3.4724638e-01 7.1689978e+00 0.0000000e+00 
8.3611876e-01 7.0656843e+00 0.0000000e+00 
0.0000000e+00 7.1999998e+00 0.0000000e+00 
4.9535713e-01 7.0473509e+00 0.0000000e+00 
1.0000000e+00 7.0000000e+00 0.0000000e+00 
1.7387313e-01 7.0734706e+00 0.0000000e+00 
6.6474640e-01 6.9560146e+00 0.0000000e+00 
3.4690949e-01 6.9773350e+00 0.0000000e+00 
8.4107113e-01 6.8641090e+00 0.0000000e+00 
0.0000000e+00 7.0000000e+00 0.0000000e+00 
5.2873749e-01 6.8578229e+00 0.0000000e+00 
1.0000000e+00 6.8000002e+00 0.0000000e+00 
1.7445621e-01 6.8769779e+00 0.0000000e+00 
6.7736709e-01 6.7575765e+00 0.0000000e+00 
3.4595537e-01 6.7778087e+00 0.0000000e+00 
8.3462298e-01 6.6689000e+00 0.0000000e+00 
0.0000000e+00 6.8000002e+00 0.0000000e+00 
5.0501287e-01 6.6597099e+00 0.0000000e+00 
1.0000000e+00 6.5999999e+00 0.0000000e+00 
1.8097465e-01 6.6789780e+00 0.0000000e+00 
6.6962856e-01 6.5595260e+00 0.0000000e+00 
3.2066780e-01 6.5871606e+00 0.0000000e+00 
8.3965176e-01 6.4710097e+00 0.0000000e+00 
0.0000000e+00 6.5999999e+00 0.0000000e+00 
4.8932999e-01 6.4914999e+00 0.0000000e+00 
1.0000000e+00 6.4000001e+00 0.0000000e+00 
1.4997987e-01 6.4839683e+00 0.0000000e+00 
6.6350561e-01 6.3954086e+00 0.0000000e+00 
3.2280096e-01 6.3877153e+00 0.0000000e+00 
8.3153027e-01 6.2889266e+00 0.0000000e+00 
0.0000000e+00 6.4000001e+00 0.0000000e+00 
4.9695736e-01 6.2927222e+00 0.0000000e+00 
1.0000000e+00 6.1999998e+00 0.0000000e+00 
1.6071729e-01 6.2864423e+00 0.0000000e+00 
6.5358984e-01 6.1999998e+00 0.0000000e+00 
3.3329538e-01 6.1896143e+00 0.0000000e+00 
8.1998920e-01 6.0895286e+00 0.0000000e+00 
0.0000000e+00 6.1999998e+00 0.0000000e+00 
4.8038477e-01 6.0999999e+00 0.0000000e+00 
1.7059118e-01 6.0888028e+00 0.0000000e+00 
1.0000000e+00 6.0000000e+00 0.0000000e+00 
6.5358984e-01 6.0000000e+00 0.0000000e+00 
3.0717969e-01 6.0000000e+00 0.0000000e+00 
8.2679492e-01 5.9000001e+00 0.0000000e+00 
0.0000000e+00 6.0000000e+00 0.0000000e+00 
4.8038477e-01 5.9000001e+00 0.0000000e+00 
1.3397460e-01 5.9000001e+00 0.0000000e+00 
1.0000000e+00 5.8000002e+00 0.0000000e+00 
6.5358984e-01 5.8000002e+00 0.0000000e+00 
3.0717969e-01 5.8000002e+00 0.0000000e+00 
8.2679492e-01 5.6999998e+00 0.0000000e+00 
0.0000000e+00 5.8000002e+00 0.0000000e+00 
4.8038477e-01 5.6999998e+00 0.0000000e+00 
1.3397460e-01 5.6999998e+00 0.0000000e+00 
1.0000000e+00 5.5999999e+00 0.0000000e+00 
6.5358984e-01 5.5999999e+00 0.0000000e+00 
3.2231969e-01 5.6385756e+00 0.0000000e+00 
8.2679492e-01 5.5000000e+00 0.0000000e+00 
0.0000000e+00 5.5999999e+00 0.0000000e+00 
4.8038477e-01 5.5000000e+00 0.0000000e+00 
1.7059118e-01 5.5111971e+00 0.0000000e+00 
1.0000000e+00 5.4000001e+00 0.0000000e+00 
6.5358984e-01 5.4000001e+00 0.0000000e+00 
3.3329538e-01 5.3896141e+00 0.0000000e+00 
8.2679492e-01 5.3000002e+00 0.0000000e+00 
0.0000000e+00 5.4000001e+00 0.0000000e+00 
4.8038477e-01 5.3000002e+00 0.0000000e+00 
1.7059118e-01 5.2888031e+00 0.0000000e+00 
1.0000000e+00 5.1999998e+00 0.0000000e+00 
6.5358984e-01 5.1999998e+00 0.0000000e+00 
3.0717969e-01 5.1999998e+00 0.0000000e+00 
8.2679492e-01 5.0999999e+00 0.0000000e+00 
0.0000000e+00 5.1999998e+00 0.0000000e+00 
4.8038477e-01 5.0999999e+00 0.0000000e+00 
1.3397460e-01 5.0999999e+00 0.0000000e+00 
1.0000000e+00 5.0000000e+00 0.0000000e+00 
6.5358984e-01 5.0000000e+00 0.0000000e+00 
3.0717969e-01 5.0000000e+00 0.0000000e+00 
0.0000000e+00 5.0000000e+00 0.0000000e+00 
8.2679492e-01 4.9000001e+00 0.0000000e+00 
4.8038477e-01 4.9000001e+00 0.0000000e+00 
1.3397460e-01 4.9000001e+00 0.0000000e+00 
1.0000000e+00 4.8000002e+00 0.0000000e+00 
6.5358984e-01 4.8000002e+00 0.0000000e+00 
3.0717969e-01 4.8000002e+00 0.0000000e+00 
0.0000000e+00 4.8000002e+00 0.0000000e+00 
8.2679492e-01 4.6999998e+00 0.0000000e+00 
4.8038477e-01 4.6999998e+00 0.0000000e+00 
1.3397460e-01 4.6999998e+00 0.0000000e+00 
1.0000000e+00 4.5999999e+00 0.0000000e+00 
6.5358984e-01 4.5999999e+00 0.0000000e+00 
3.0717969e-01 4.5999999e+00 0.0000000e+00 
0.0000000e+00 4.5999999e+00 0.0000000e+00 
8.2679492e-01 4.5000000e+00 0.0000000e+00 
4.8038477e-01 4.5000000e+00 0.0000000e+00 
1.3397460e-01 4.5000000e+00 0.0000000e+00 
1.0000000e+00 4.4000001e+00 0.0000000e+00 
6.5358984e-01 4.4000001e+00 0.0000000e+00 
3.0717969e-01 4.4000001e+00 0.0000000e+00 
8.3046603e-01 4.3165317e+00 0.0000000e+00 
0.0000000e+00 4.4000001e+00 0.0000000e+00 
4.8038477e-01 4.3000002e+00 0.0000000e+00 
1.7059118e-01 4.3111973e+00 0.0000000e+00 
6.6123927e-01 4.2184782e+00 0.0000000e+00 
1.0000000e+00 4.1999998e+00 0.0000000e+00 
3.3329538e-01 4.2103858e+00 0.0000000e+00 
8.3268768e-01 4.1176395e+00 0.0000000e+00 
0.0000000e+00 4.1999998e+00 0.0000000e+00 
4.9695736e-01 4.1072779e+00 0.0000000e+00 
1.6071729e-01 4.1135573e+00 0.0000000e+00 
1.0000000e+00 4.0000000e+00 0.0000000e+00 
3.2280096e-01 4.0122848e+00 0.0000000e+00 
6.4947557e-01 3.9632084e+00 0.0000000e+00 
8.4590596e-01 3.9203768e+00 0.0000000e+00 
0.0000000e+00 4.0000000e+00 0.0000000e+00 
4.7627035e-01 3.9377375e+00 0.0000000e+00 
1.4997987e-01 3.9160316e+00 0.0000000e+00 
1.0000000e+00 3.8000000e+00 0.0000000e+00 
3.2066780e-01 3.8128395e+00 0.0000000e+00 
5.1165128e-01 3.7661045e+00 0.0000000e+00 
0.0000000e+00 3.8000000e+00 0.0000000e+00 
7.4880123e-01 3.7184730e+00 0.0000000e+00 
1.8097465e-01 3.7210221e+00 0.0000000e+00 
1.0000000e+00 3.5999999e+00 0.0000000e+00 
3.4595537e-01 3.6221914e+00 0.0000000e+00 
5.2873749e-01 3.5421770e+00 0.0000000e+00 
0.0000000e+00 3.5999999e+00 0.0000000e+00 
1.7445621e-01 3.5230222e+00 0.0000000e+00 
7.1247655e-01 3.4632580e+00 0.0000000e+00 
1.0000000e+00 3.4000001e+00 0.0000000e+00 
3.4690949e-01 3.4226651e+00 0.0000000e+00 
0.0000000e+00 3.4000001e+00 0.0000000e+00 
5.1989859e-01 3.3223066e+00 0.0000000e+00 
8.2679492e-01 3.3000000e+00 0.0000000e+00 
1.7356591e-01 3.3231418e+00 0.0000000e+00 
1.0000000e+00 3.2000000e+00 0.0000000e+00 
3.4647828e-01 3.2226951e+00 0.0000000e+00 
6.5358984e-01 3.2000000e+00 0.0000000e+00 
5.0604391e-01 3.1465836e+00 0.0000000e+00 
[...]
POINT_DATA 340
FIELD FieldData 3
DISPLACEMENT 3 340  float
-2.8603041e+00 2.0423687e-01 0.0000000e+00 
-2.7814529e+00 2.0418094e-01 0.0000000e+00 
-2.8602850e+00 1.2539899e-01 0.0000000e+00 
-2.7851007e+00 9.7618110e-02 0.0000000e+00 
-2.7176297e+00 1.4176254e-01 0.0000000e+00 
-2.8602805e+00 4.6582904e-02 0.0000000e+00 
-2.7025518e+00 2.0411441e-01 0.0000000e+00 
-2.7920136e+00 7.1598040e-03 0.0000000e+00 
-2.6988955e+00 6.0686886e-02 0.0000000e+00 
-2.6371129e+00 1.4197582e-01 0.0000000e+00 
-2.8603225e+00 -3.2218635e-02 0.0000000e+00 
-2.6236262e+00 2.0398870e-01 0.0000000e+00 
-2.7159801e+00 -3.0131852e-02 0.0000000e+00 
-2.7870581e+00 -7.9978362e-02 0.0000000e+00 
-2.5960612e+00 7.4649796e-02 0.0000000e+00 
-2.6337156e+00 5.5476846e-03 0.0000000e+00 
-2.5581932e+00 1.4358567e-01 0.0000000e+00 
-2.8604062e+00 -1.1104216e-01 0.0000000e+00 
-2.5447054e+00 2.0377779e-01 0.0000000e+00 
-2.6553752e+00 -7.1597658e-02 0.0000000e+00 
-2.7119451e+00 -1.2381615e-01 0.0000000e+00 
-2.5172398e+00 7.6266356e-02 0.0000000e+00 
-2.5523167e+00 1.1038458e-03 0.0000000e+00 
-2.4793658e+00 1.4548109e-01 0.0000000e+00 
-2.8605018e+00 -1.8988636e-01 0.0000000e+00 
-2.4658306e+00 2.0345490e-01 0.0000000e+00 
-2.7816458e+00 -1.8988816e-01 0.0000000e+00 
-2.5772822e+00 -9.9871606e-02 0.0000000e+00 
-2.7027524e+00 -1.8987517e-01 0.0000000e+00 
-2.4758933e+00 9.3346108e-03 0.0000000e+00 
-2.5138412e+00 -5.9412263e-02 0.0000000e+00 
-2.4383779e+00 7.8234024e-02 0.0000000e+00 
-2.6238120e+00 -1.8981376e-01 0.0000000e+00 
-2.4005752e+00 1.4684473e-01 0.0000000e+00 
-2.3871150e+00 2.0297122e-01 0.0000000e+00 
-2.5052278e+00 -1.2133935e-01 0.0000000e+00 
-2.4350767e+00 -5.7123102e-02 0.0000000e+00 
-2.3971107e+00 1.1579713e-02 0.0000000e+00 
-2.5448663e+00 -1.8968996e-01 0.0000000e+00 
-2.3598006e+00 7.9643950e-02 0.0000000e+00 
-2.4262912e+00 -1.2115736e-01 0.0000000e+00 
-2.3084707e+00 2.0238474e-01 0.0000000e+00 
-2.4658711e+00 -1.8945722e-01 0.0000000e+00 
-2.3563180e+00 -5.5303019e-02 0.0000000e+00 
-2.3184798e+00 1.3032955e-02 0.0000000e+00 
-2.2765830e+00 9.9086426e-02 0.0000000e+00 
-2.3870068e+00 -1.8909088e-01 0.0000000e+00 
-2.2301192e+00 2.0170408e-01 0.0000000e+00 
-2.3151615e+00 -1.2179826e-01 0.0000000e+00 
-2.2779589e+00 -5.2868500e-02 0.0000000e+00 
-2.2401094e+00 1.5386779e-02 0.0000000e+00 
-2.1975513e+00 1.0297036e-01 0.0000000e+00 
-2.3083642e+00 -1.8861087e-01 0.0000000e+00 
-2.2367690e+00 -1.1984444e-01 0.0000000e+00 
-2.1996675e+00 -5.1107742e-02 0.0000000e+00 
-2.1520345e+00 2.0087816e-01 0.0000000e+00 
-2.1620147e+00 1.6569287e-02 0.0000000e+00 
-2.2299850e+00 -1.8799841e-01 0.0000000e+00 
-2.1185470e+00 1.0732275e-01 0.0000000e+00 
-2.1586740e+00 -1.1692454e-01 0.0000000e+00 
-2.1220200e+00 -4.8363540e-02 0.0000000e+00 
-2.0742910e+00 1.9990139e-01 0.0000000e+00 
-2.0843294e+00 1.9201636e-02 0.0000000e+00 
-2.1519012e+00 -1.8726106e-01 0.0000000e+00 
-2.0418584e+00 1.0518287e-01 0.0000000e+00 
-2.0797844e+00 -1.1546996e-01 0.0000000e+00 
-2.0444355e+00 -4.6603903e-02 0.0000000e+00 
-1.9969392e+00 1.9880314e-01 0.0000000e+00 
-2.0071023e+00 1.9658953e-02 0.0000000e+00 
-2.0741620e+00 -1.8639533e-01 0.0000000e+00 
-1.9642464e+00 1.0764562e-01 0.0000000e+00 
-2.0025315e+00 -1.1066537e-01 0.0000000e+00 
-1.9682899e+00 -4.1911475e-02 0.0000000e+00 
-1.9200444e+00 1.9755237e-01 0.0000000e+00 
-1.9308331e+00 2.4011601e-02 0.0000000e+00 
-1.9968221e+00 -1.8541190e-01 0.0000000e+00 
-1.8899162e+00 1.0074204e-01 0.0000000e+00 
-1.9274580e+00 -1.0615752e-01 0.0000000e+00 
-1.8923094e+00 -3.8323361e-02 0.0000000e+00 
-1.9199324e+00 -1.8430850e-01 0.0000000e+00 
-1.8436000e+00 1.9621553e-01 0.0000000e+00 
-1.8578873e+00 1.4616014e-02 0.0000000e+00 
-1.8635955e+00 -1.0827771e-01 0.0000000e+00 
-1.8174582e+00 8.5595690e-02 0.0000000e+00 
-1.8170404e+00 -4.8848264e-02 0.0000000e+00 
-1.7748824e+00 1.3773566e-01 0.0000000e+00 
-1.8435272e+00 -1.8304740e-01 0.0000000e+00 
-1.7828692e+00 1.8231483e-02 0.0000000e+00 
-1.7678010e+00 1.9468924e-01 0.0000000e+00 
-1.7887731e+00 -1.1507055e-01 0.0000000e+00 
-1.7497281e+00 6.7317389e-02 0.0000000e+00 
-1.7552987e+00 -5.0818063e-02 0.0000000e+00 
-1.7167119e+00 1.3212623e-01 0.0000000e+00 
-1.7676791e+00 -1.8162371e-01 0.0000000e+00 
-1.7094138e+00 4.7121621e-03 0.0000000e+00 
-1.6925632e+00 1.9299473e-01 0.0000000e+00 
-1.7195570e+00 -1.1544343e-01 0.0000000e+00 
-1.6752799e+00 6.7674838e-02 0.0000000e+00 
-1.6832207e+00 -5.0492395e-02 0.0000000e+00 
-1.6413286e+00 1.3272889e-01 0.0000000e+00 
-1.6924504e+00 -1.8006673e-01 0.0000000e+00 
-1.6385235e+00 1.7039251e-02 0.0000000e+00 
-1.6180149e+00 1.9115341e-01 0.0000000e+00 
-1.6460063e+00 -1.1420455e-01 0.0000000e+00 
-1.6014183e+00 7.1652375e-02 0.0000000e+00 
-1.6088555e+00 -5.0372079e-02 0.0000000e+00 
-1.5689721e+00 1.2904137e-01 0.0000000e+00 
-1.6178936e+00 -1.7837691e-01 0.0000000e+00 
-1.5651125e+00 8.1881238e-03 0.0000000e+00 
-1.5441902e+00 1.8918341e-01 0.0000000e+00 
-1.5725775e+00 -1.1068206e-01 0.0000000e+00 
-1.5284072e+00 6.8108723e-02 0.0000000e+00 
-1.5385197e+00 -5.9121531e-02 0.0000000e+00 
-1.4964099e+00 1.2948588e-01 0.0000000e+00 
-1.5440834e+00 -1.7658171e-01 0.0000000e+00 
-1.5033643e+00 2.4251728e-03 0.0000000e+00 
-1.4711574e+00 1.8705864e-01 0.0000000e+00 
-1.5010731e+00 -1.2078043e-01 0.0000000e+00 
-1.4684864e+00 6.5280750e-02 0.0000000e+00 
-1.4656676e+00 -5.7676781e-02 0.0000000e+00 
-1.4303216e+00 1.2519847e-01 0.0000000e+00 
-1.4710190e+00 -1.7456847e-01 0.0000000e+00 
-1.4311465e+00 5.1387982e-03 0.0000000e+00 
-1.3989747e+00 1.8480887e-01 0.0000000e+00 
-1.4293505e+00 -1.1553896e-01 0.0000000e+00 
-1.3978945e+00 6.0957082e-02 0.0000000e+00 
-1.3941300e+00 -5.3234119e-02 0.0000000e+00 
-1.3587646e+00 1.1954087e-01 0.0000000e+00 
-1.3988346e+00 -1.7247148e-01 0.0000000e+00 
-1.3619660e+00 -8.0626103e-04 0.0000000e+00 
-1.3584353e+00 -1.1058756e-01 0.0000000e+00 
-1.3276883e+00 1.8245333e-01 0.0000000e+00 
-1.3265357e+00 6.0185008e-02 0.0000000e+00 
-1.3265443e+00 -6.1787620e-02 0.0000000e+00 
-1.2916512e+00 1.2040453e-01 0.0000000e+00 
-1.3275455e+00 -1.7028703e-01 0.0000000e+00 
-1.2910651e+00 -7.8291347e-04 0.0000000e+00 
-1.2916574e+00 -1.2199952e-01 0.0000000e+00 
-1.2573417e+00 1.7992724e-01 0.0000000e+00 
-1.2561293e+00 5.9356283e-02 0.0000000e+00 
-1.2561351e+00 -6.0930002e-02 0.0000000e+00 
-1.2217710e+00 1.1868782e-01 0.0000000e+00 
-1.2571661e+00 -1.6785367e-01 0.0000000e+00 
-1.2211498e+00 -7.5253710e-04 0.0000000e+00 
-1.2217889e+00 -1.2026956e-01 0.0000000e+00 
-1.1880126e+00 1.7727073e-01 0.0000000e+00 
-1.1867390e+00 5.8481008e-02 0.0000000e+00 
-1.2000191e+00 -5.4983616e-02 0.0000000e+00 
-1.1529258e+00 1.1687858e-01 0.0000000e+00 
-1.1878607e+00 -1.6528754e-01 0.0000000e+00 
-1.1522807e+00 -7.3335972e-04 0.0000000e+00 
-1.1566644e+00 -1.0605826e-01 0.0000000e+00 
-1.1197338e+00 1.7448631e-01 0.0000000e+00 
-1.1184069e+00 5.7558794e-02 0.0000000e+00 
-1.1148338e+00 -5.0187629e-02 0.0000000e+00 
-1.0851488e+00 1.1498075e-01 0.0000000e+00 
-1.1196065e+00 -1.6271546e-01 0.0000000e+00 
-1.0844742e+00 -7.5421814e-04 0.0000000e+00 
-1.0813017e+00 -1.0406837e-01 0.0000000e+00 
-1.0525482e+00 1.7156796e-01 0.0000000e+00 
-1.0511514e+00 5.6591384e-02 0.0000000e+00 
-1.0511980e+00 -5.8027782e-02 0.0000000e+00 
-1.0184847e+00 1.1298662e-01 0.0000000e+00 
-1.0524487e+00 -1.5999109e-01 0.0000000e+00 
-1.0178018e+00 -7.0998096e-04 0.0000000e+00 
-1.0186039e+00 -1.1434841e-01 0.0000000e+00 
-9.8650193e-01 1.6850711e-01 0.0000000e+00 
-9.8504943e-01 5.5587992e-02 0.0000000e+00 
-9.8514497e-01 -5.6947924e-02 0.0000000e+00 
-9.8651856e-01 -1.5701173e-01 0.0000000e+00 
-9.5298618e-01 1.1089661e-01 0.0000000e+00 
-9.5229495e-01 -6.5524329e-04 0.0000000e+00 
-9.5323187e-01 -1.1219322e-01 0.0000000e+00 
-9.2164552e-01 1.6529509e-01 0.0000000e+00 
-9.2012715e-01 5.4542039e-02 0.0000000e+00 
-9.2027336e-01 -5.5785045e-02 0.0000000e+00 
-9.2182112e-01 -1.5394573e-01 0.0000000e+00 
-8.8869196e-01 1.0869720e-01 0.0000000e+00 
-8.8798410e-01 -5.8409740e-04 0.0000000e+00 
-8.8902187e-01 -1.0988417e-01 0.0000000e+00 
-8.5802579e-01 1.6190799e-01 0.0000000e+00 
-8.5642582e-01 5.3444706e-02 0.0000000e+00 
-8.5660845e-01 -5.4541633e-02 0.0000000e+00 
-8.5823929e-01 -1.5070735e-01 0.0000000e+00 
-8.2565266e-01 1.0636815e-01 0.0000000e+00 
-8.2491392e-01 -4.9890135e-04 0.0000000e+00 
-8.2601833e-01 -1.0746059e-01 0.0000000e+00 
-7.9571152e-01 1.5830977e-01 0.0000000e+00 
-7.9401034e-01 5.2284971e-02 0.0000000e+00 
-7.9420310e-01 -5.3215310e-02 0.0000000e+00 
-7.6901108e-01 1.0521848e-01 0.0000000e+00 
-7.9596752e-01 -1.4719999e-01 0.0000000e+00 
-7.6316810e-01 -4.0616159e-04 0.0000000e+00 
-7.6755750e-01 -9.3875624e-02 0.0000000e+00 
-7.3855984e-01 5.3466361e-02 0.0000000e+00 
-7.3478287e-01 1.5443841e-01 0.0000000e+00 
-7.3620927e-01 -4.4121459e-02 0.0000000e+00 
-7.0895422e-01 1.0321485e-01 0.0000000e+00 
-7.3503923e-01 -1.4361814e-01 0.0000000e+00 
-7.0498520e-01 4.4915071e-03 0.0000000e+00 
-7.0794410e-01 -9.4295084e-02 0.0000000e+00 
-6.7540532e-01 1.5022878e-01 0.0000000e+00 
-6.7720950e-01 -4.5880597e-02 0.0000000e+00 
-6.6251236e-01 4.8256680e-02 0.0000000e+00 
-6.5107733e-01 1.0423395e-01 0.0000000e+00 
-6.7547989e-01 -1.3971259e-01 0.0000000e+00 
-6.5514946e-01 -1.4287964e-03 0.0000000e+00 
-6.4982939e-01 -9.4719976e-02 0.0000000e+00 
-6.1773580e-01 1.4550573e-01 0.0000000e+00 
-6.1931932e-01 -4.5027938e-02 0.0000000e+00 
-6.0574579e-01 8.5443249e-03 0.0000000e+00 
-6.1754924e-01 -1.3541935e-01 0.0000000e+00 
-5.9275693e-01 7.4077621e-02 0.0000000e+00 
-5.9380108e-01 -8.3176240e-02 0.0000000e+00 
-5.6160802e-01 1.4098166e-01 0.0000000e+00 
-5.6541938e-01 -3.6800817e-02 0.0000000e+00 
-5.4317194e-01 1.2683389e-02 0.0000000e+00 
-5.6143820e-01 -1.3100526e-01 0.0000000e+00 
-5.3893316e-01 -8.2054235e-02 0.0000000e+00 
-5.2229637e-01 6.1075702e-02 0.0000000e+00 
-5.0782353e-01 1.3639057e-01 0.0000000e+00 
-5.1105869e-01 -3.5230774e-02 0.0000000e+00 
-5.0726616e-01 -1.2621585e-01 0.0000000e+00 
-4.8432133e-01 9.9368859e-03 0.0000000e+00 
-4.7977999e-01 8.8550828e-02 0.0000000e+00 
-4.8550549e-01 -7.9158589e-02 0.0000000e+00 
-4.5553049e-01 1.3080370e-01 0.0000000e+00 
-4.5859200e-01 -3.3969499e-02 0.0000000e+00 
-4.5283729e-01 4.3244354e-02 0.0000000e+00 
-4.3895209e-01 6.3391505e-03 0.0000000e+00 
-4.5517451e-01 -1.2113310e-01 0.0000000e+00 
-4.2856279e-01 8.4824279e-02 0.0000000e+00 
-4.3413499e-01 -7.5920068e-02 0.0000000e+00 
-4.0552509e-01 1.2498054e-01 0.0000000e+00 
-4.0284571e-01 4.1339375e-02 0.0000000e+00 
-4.0186089e-01 -1.9373622e-02 0.0000000e+00 
-4.0515977e-01 -1.1577312e-01 0.0000000e+00 
-3.7959966e-01 8.0855303e-02 0.0000000e+00 
-3.7891346e-01 -7.0809469e-02 0.0000000e+00 
-3.5776263e-01 1.1889650e-01 0.0000000e+00 
-3.5589191e-01 2.5836062e-02 0.0000000e+00 
-3.5232383e-01 -3.1000735e-02 0.0000000e+00 
-3.5759044e-01 -1.1014066e-01 0.0000000e+00 
-3.3304805e-01 7.6926395e-02 0.0000000e+00 
-3.3290234e-01 -6.8324097e-02 0.0000000e+00 
-3.2233509e-01 -9.5036119e-04 0.0000000e+00 
-3.1261802e-01 1.1250298e-01 0.0000000e+00 
-3.0952963e-01 3.7158016e-02 0.0000000e+00 
-3.0959514e-01 -3.7181366e-02 0.0000000e+00 
-3.1235453e-01 -1.0414410e-01 0.0000000e+00 
-2.8896126e-01 7.2473250e-02 0.0000000e+00 
-2.8740862e-01 4.7217462e-05 0.0000000e+00 
-2.8872666e-01 -6.4242654e-02 0.0000000e+00 
-2.6990962e-01 1.0572428e-01 0.0000000e+00 
-2.6670176e-01 3.4982178e-02 0.0000000e+00 
-2.6671377e-01 -3.4930892e-02 0.0000000e+00 
-2.6958477e-01 -9.7806379e-02 0.0000000e+00 
-2.4750604e-01 6.7848369e-02 0.0000000e+00 
-2.4588326e-01 4.9152812e-05 0.0000000e+00 
-2.4721718e-01 -5.9969161e-02 0.0000000e+00 
-2.2990595e-01 9.8606177e-02 0.0000000e+00 
-2.2653902e-01 3.2655139e-02 0.0000000e+00 
-2.2656807e-01 -3.2606125e-02 0.0000000e+00 
-2.2953336e-01 -9.1257364e-02 0.0000000e+00 
-2.0879874e-01 6.3009046e-02 0.0000000e+00 
-2.0706898e-01 6.9952381e-05 0.0000000e+00 
-2.0882581e-01 -6.2798567e-02 0.0000000e+00 
-1.9271946e-01 9.1138974e-02 0.0000000e+00 
-1.8919519e-01 3.0188935e-02 0.0000000e+00 
-1.8920408e-01 -3.0044464e-02 0.0000000e+00 
-1.9223499e-01 -8.4145993e-02 0.0000000e+00 
-1.7298251e-01 5.7960290e-02 0.0000000e+00 
-1.7116427e-01 8.9816349e-05 0.0000000e+00 
-1.7301640e-01 -5.7749301e-02 0.0000000e+00 
-1.5852571e-01 8.3299972e-02 0.0000000e+00 
-1.5480919e-01 2.7587967e-02 0.0000000e+00 
-1.5481514e-01 -2.7406016e-02 0.0000000e+00 
-1.5800323e-01 -7.6862194e-02 0.0000000e+00 
-1.4261463e-01 5.1171351e-02 0.0000000e+00 
-1.3829626e-01 1.0440745e-04 0.0000000e+00 
-1.4021392e-01 -5.2440368e-02 0.0000000e+00 
-1.2736852e-01 7.5305119e-02 0.0000000e+00 
-1.2351249e-01 2.4926933e-02 0.0000000e+00 
-1.2351596e-01 -2.4669839e-02 0.0000000e+00 
-1.2681724e-01 -6.9269612e-02 0.0000000e+00 
-1.1313942e-01 4.7956832e-02 0.0000000e+00 
-1.0855087e-01 1.0189954e-04 0.0000000e+00 
-1.1055823e-01 -4.6957202e-02 0.0000000e+00 
-9.8911166e-02 2.3176124e-02 0.0000000e+00 
-9.9410586e-02 6.6805623e-02 0.0000000e+00 
-9.5429093e-02 -2.1795951e-02 0.0000000e+00 
-9.8931968e-02 -6.1240651e-02 0.0000000e+00 
-8.6609155e-02 4.1895509e-02 0.0000000e+00 
-8.5714303e-02 1.4943084e-03 0.0000000e+00 
-8.5179724e-02 -3.7016809e-02 0.0000000e+00 
-7.3932178e-02 2.0620240e-02 0.0000000e+00 
-7.4814685e-02 5.8090266e-02 0.0000000e+00 
-7.1722433e-02 -1.6166262e-02 0.0000000e+00 
-6.6966392e-02 3.8944017e-02 0.0000000e+00 
-7.4249081e-02 -5.3264182e-02 0.0000000e+00 
-6.2345713e-02 3.8504661e-03 0.0000000e+00 
-6.2293764e-02 -3.2788683e-02 0.0000000e+00 
-5.2964408e-02 1.9629331e-02 0.0000000e+00 
-5.3584088e-02 4.9024034e-02 0.0000000e+00 
-5.0244179e-02 -1.3754170e-02 0.0000000e+00 
-5.3067740e-02 -4.4730157e-02 0.0000000e+00 
-4.5527294e-02 3.3338666e-02 0.0000000e+00 
-4.2375434e-02 3.1687526e-03 0.0000000e+00 
-4.2490166e-02 -2.5436163e-02 0.0000000e+00 
-3.4658387e-02 1.6308948e-02 0.0000000e+00 
-3.5939649e-02 3.9463341e-02 0.0000000e+00 
-3.2646384e-02 -9.9159908e-03 0.0000000e+00 
-3.5423309e-02 -3.6124505e-02 0.0000000e+00 
-2.9036678e-02 2.6691312e-02 0.0000000e+00 
-2.5817340e-02 2.6819985e-03 0.0000000e+00 
-2.6439287e-02 -2.0185996e-02 0.0000000e+00 
-1.9974655e-02 1.2584057e-02 0.0000000e+00 
-2.2114633e-02 2.9655276e-02 0.0000000e+00 
-1.8285381e-02 -7.3391143e-03 0.0000000e+00 
-2.1447225e-02 -2.7121799e-02 0.0000000e+00 
-1.5191853e-02 1.8878520e-02 0.0000000e+00 
-1.2216476e-02 2.1730517e-03 0.0000000e+00 
-1.3966942e-02 -1.4477395e-02 0.0000000e+00 
-8.3091045e-03 8.1389090e-03 0.0000000e+00 
-1.2094035e-02 1.9330280e-02 0.0000000e+00 
-7.7429139e-03 -4.8242309e-03 0.0000000e+00 
-7.5692139e-03 1.1847155e-02 0.0000000e+00 
-1.1308362e-02 -1.7761324e-02 0.0000000e+00 
-3.7827676e-03 1.4525324e-03 0.0000000e+00 
-4.3990202e-03 -7.5304755e-03 0.0000000e+00 
-2.6977728e-03 4.9852147e-03 0.0000000e+00 
-5.0193658e-03 8.9282207e-03 0.0000000e+00 
-8.5858762e-04 -1.3011688e-03 0.0000000e+00 
-4.6051885e-03 -8.2099559e-03 0.0000000e+00 
0.0000000e+00 0.0000000e+00 0.0000000e+00 
0.0000000e+00 0.0000000e+00 0.0000000e+00 
0.0000000e+00 0.0000000e+00 0.0000000e+00 
0.0000000e+00 0.0000000e+00 0.0000000e+00 
0.0000000e+00 0.0000000e+00 0.0000000e+00 
0.0000000e+00 0.0000000e+00 0.0000000e+00 
REACTION 3 340  float
-3.1741113e-10 -5.7225236e-08 0.0000000e+00 
2.1239147e-10 1.1504031e-09 0.0000000e+00 
9.8481778e-12 -1.1330044e-07 0.0000000e+00 
-3.8692172e-10 2.0093960e-09 0.0000000e+00 
-8.5582430e-11 2.3105566e-09 0.0000000e+00 
-2.5267188e-10 -1.1373245e-07 0.0000000e+00 
7.9444556e-10 1.7404478e-09 0.0000000e+00 
-1.0735213e-10 2.6416134e-09 0.0000000e+00 
5.5303007e-10 6.2449361e-09 0.0000000e+00 
1.4848742e-09 6.8244304e-09 0.0000000e+00 
3.2673819e-10 -1.1398632e-07 0.0000000e+00 
2.2037931e-09 4.4013939e-09 0.0000000e+00 
-1.9362512e-10 5.6883951e-09 0.0000000e+00 
2.8889646e-10 1.9593311e-09 0.0000000e+00 
1.9929280e-09 9.4669934e-09 0.0000000e+00 
3.5049119e-10 6.6682668e-09 0.0000000e+00 
1.9829591e-09 1.2133937e-08 0.0000000e+00 
1.2148693e-10 -1.1411159e-07 0.0000000e+00 
5.1172924e-09 9.0799546e-09 0.0000000e+00 
-8.1063112e-10 7.5102848e-09 0.0000000e+00 
2.9674530e-10 2.8674905e-09 0.0000000e+00 
3.6187511e-09 1.3170055e-08 0.0000000e+00 
9.3457686e-11 1.1673482e-08 0.0000000e+00 
1.9401216e-09 1.9161728e-08 0.0000000e+00 
1.2609532e-07 -5.6995855e-08 0.0000000e+00 
1.3208941e-08 1.9000977e-08 0.0000000e+00 
2.5202476e-07 1.0544128e-09 0.0000000e+00 
4.7547788e-10 1.6368343e-08 0.0000000e+00 
2.5073143e-07 2.0663122e-09 0.0000000e+00 
5.4339289e-10 1.2656026e-08 0.0000000e+00 
-2.7127722e-10 6.5915131e-09 0.0000000e+00 
2.4619640e-09 1.6758438e-08 0.0000000e+00 
2.4859025e-07 6.7473493e-09 0.0000000e+00 
-1.6946451e-08 3.4176029e-08 0.0000000e+00 
3.6122955e-08 1.2666664e-08 0.0000000e+00 
2.6344358e-09 1.3719586e-08 0.0000000e+00 
-1.7249097e-09 1.0258127e-08 0.0000000e+00 
-1.0151382e-09 1.4881703e-08 0.0000000e+00 
2.4561180e-07 1.1030250e-08 0.0000000e+00 
-2.7847253e-09 2.6410081e-08 0.0000000e+00 
-9.0016226e-09 1.5798811e-08 0.0000000e+00 
3.0385849e-08 5.2440338e-08 0.0000000e+00 
1.1914000e-07 1.4825602e-08 0.0000000e+00 
3.8721248e-10 1.7348951e-08 0.0000000e+00 
-6.1364593e-09 1.7174761e-08 0.0000000e+00 
-7.1506596e-09 4.2892829e-08 0.0000000e+00 
-2.5475009e-09 1.6907943e-08 0.0000000e+00 
4.7473872e-08 5.8392548e-08 0.0000000e+00 
-9.3808694e-09 2.5974565e-08 0.0000000e+00 
-6.3008727e-09 1.8244155e-08 0.0000000e+00 
-1.0602588e-08 2.2326613e-08 0.0000000e+00 
-2.1218547e-08 5.1538755e-08 0.0000000e+00 
-9.4211972e-09 2.2032424e-08 0.0000000e+00 
-5.4380300e-10 2.8234629e-08 0.0000000e+00 
-6.8345738e-09 2.2578295e-08 0.0000000e+00 
6.5877579e-08 6.7441171e-08 0.0000000e+00 
-1.5130672e-08 2.6194559e-08 0.0000000e+00 
-9.9144071e-09 2.5658764e-08 0.0000000e+00 
-3.6777088e-08 6.0740931e-08 0.0000000e+00 
8.1169738e-10 3.3758575e-08 0.0000000e+00 
-8.6462189e-09 2.5602379e-08 0.0000000e+00 
8.7872387e-08 7.0063621e-08 0.0000000e+00 
-1.9969054e-08 3.3920525e-08 0.0000000e+00 
-9.4211474e-09 2.9150442e-08 0.0000000e+00 
-5.2351801e-08 6.6599263e-08 0.0000000e+00 
2.3857467e-09 4.0115474e-08 0.0000000e+00 
-1.1197205e-08 3.1324401e-08 0.0000000e+00 
1.1288203e-07 8.6660350e-08 0.0000000e+00 
-2.7073348e-08 3.7557115e-08 0.0000000e+00 
-9.8993569e-09 3.0705863e-08 0.0000000e+00 
-6.9235462e-08 7.7520589e-08 0.0000000e+00 
2.2907409e-09 4.5994028e-08 0.0000000e+00 
-1.5279895e-08 3.3639893e-08 0.0000000e+00 
1.3556739e-07 7.4765502e-08 0.0000000e+00 
-3.3224694e-08 5.0754551e-08 0.0000000e+00 
-1.0085291e-08 3.3838766e-08 0.0000000e+00 
-7.7493127e-08 5.6688506e-08 0.0000000e+00 
6.6569634e-09 5.2988288e-08 0.0000000e+00 
-2.7935624e-08 3.9968462e-08 0.0000000e+00 
-1.0233000e-08 3.4838870e-08 0.0000000e+00 
1.4059600e-07 9.4011085e-08 0.0000000e+00 
-3.7629960e-08 5.5974429e-08 0.0000000e+00 
-2.2578899e-09 5.2247625e-08 0.0000000e+00 
-5.8760889e-08 1.2891316e-07 0.0000000e+00 
-2.7883601e-08 3.7282796e-08 0.0000000e+00 
-1.0763585e-07 5.9311546e-08 0.0000000e+00 
2.0673948e-08 3.1461227e-08 0.0000000e+00 
-4.2415518e-08 5.1442520e-08 0.0000000e+00 
2.6140785e-07 8.0647560e-08 0.0000000e+00 
-1.2224297e-08 4.9865591e-08 0.0000000e+00 
-6.3579613e-08 5.2603447e-08 0.0000000e+00 
-4.1647478e-08 4.5850030e-08 0.0000000e+00 
-1.3129834e-07 9.0364097e-08 0.0000000e+00 
4.5638664e-08 2.6231085e-08 0.0000000e+00 
-5.7359244e-08 5.3794142e-08 0.0000000e+00 
2.8361143e-07 6.6562109e-08 0.0000000e+00 
-2.1256435e-08 4.3001606e-08 0.0000000e+00 
-9.2007298e-08 8.6102872e-08 0.0000000e+00 
-6.2326379e-08 2.4504404e-08 0.0000000e+00 
-1.3203318e-07 1.0747702e-07 0.0000000e+00 
9.4172321e-08 2.6224747e-08 0.0000000e+00 
-8.7585605e-08 5.4379413e-08 0.0000000e+00 
3.3432249e-07 7.6671292e-08 0.0000000e+00 
-4.6706162e-08 5.3708227e-08 0.0000000e+00 
-1.1244194e-07 7.4442170e-08 0.0000000e+00 
-7.7982307e-08 4.7382692e-08 0.0000000e+00 
-1.5516929e-07 1.0537981e-07 0.0000000e+00 
1.3246607e-07 1.7633752e-08 0.0000000e+00 
-1.0367039e-07 5.5440587e-08 0.0000000e+00 
3.7679948e-07 7.6735603e-08 0.0000000e+00 