# vtk DataFile Version 4.0
vtk output
ASCII
DATASET UNSTRUCTURED_GRID
POINTS 340 float
1.0000000e+00 1.0000000e+01 0.0000000e+00 
1.0000000e+00 9.8000002e+00 0.0000000e+00 
8.0000001e-01 1.0000000e+01 0.0000000e+00 
7.2964472e-01 9.8093147e+00 0.0000000e+00 
8.4182751e-01 9.6382694e+00 0.0000000e+00 
6.0000002e-01 1.0000000e+01 0.0000000e+00 
1.0000000e+00 9.6000004e+00 0.0000000e+00 
5.0000000e-01 9.8267946e+00 0.0000000e+00 
6.3604087e-01 9.5908260e+00 0.0000000e+00 
8.4263843e-01 9.4342804e+00 0.0000000e+00 
4.0000001e-01 1.0000000e+01 0.0000000e+00 
1.0000000e+00 9.3999996e+00 0.0000000e+00 
4.0534732e-01 9.6340141e+00 0.0000000e+00 
2.7881753e-01 9.8140564e+00 0.0000000e+00 
6.7177695e-01 9.3303623e+00 0.0000000e+00 
4.9604306e-01 9.4256926e+00 0.0000000e+00 
8.4713864e-01 9.2343493e+00 0.0000000e+00 
2.0000000e-01 1.0000000e+01 0.0000000e+00 
1.0000000e+00 9.1999998e+00 0.0000000e+00 
3.0000001e-01 9.4803848e+00 0.0000000e+00 
1.6755788e-01 9.6235323e+00 0.0000000e+00 
6.7617422e-01 9.1307087e+00 0.0000000e+00 
4.8477495e-01 9.2195473e+00 0.0000000e+00 
8.5255039e-01 9.0345669e+00 0.0000000e+00 
0.0000000e+00 1.0000000e+01 0.0000000e+00 
1.0000000e+00 9.0000000e+00 0.0000000e+00 
0.0000000e+00 9.8000002e+00 0.0000000e+00 
2.2804837e-01 9.2825413e+00 0.0000000e+00 
0.0000000e+00 9.6000004e+00 0.0000000e+00 
5.0581944e-01 9.0259790e+00 0.0000000e+00 
3.3078760e-01 9.1219988e+00 0.0000000e+00 
6.8160146e-01 8.9308100e+00 0.0000000e+00 
0.0000000e+00 9.3999996e+00 0.0000000e+00 
8.5683817e-01 8.8346405e+00 0.0000000e+00 
1.0000000e+00 8.8000002e+00 0.0000000e+00 
1.7320508e-01 9.1000004e+00 0.0000000e+00 
3.3639798e-01 8.9224386e+00 0.0000000e+00 
5.1166874e-01 8.8261728e+00 0.0000000e+00 
0.0000000e+00 9.1999998e+00 0.0000000e+00 
6.8573916e-01 8.7312880e+00 0.0000000e+00 
1.7320508e-01 8.8999996e+00 0.0000000e+00 
1.0000000e+00 8.6000004e+00 0.0000000e+00 
0.0000000e+00 9.0000000e+00 0.0000000e+00 
3.4077987e-01 8.7225189e+00 0.0000000e+00 
5.1553297e-01 8.6263428e+00 0.0000000e+00 
7.3636049e-01 8.5193882e+00 0.0000000e+00 
0.0000000e+00 8.8000002e+00 0.0000000e+00 
1.0000000e+00 8.3999996e+00 0.0000000e+00 
1.7061394e-01 8.6176825e+00 0.0000000e+00 
3.4670532e-01 8.5231361e+00 0.0000000e+00 
5.2180642e-01 8.4266043e+00 0.0000000e+00 
7.4737626e-01 8.3175163e+00 0.0000000e+00 
0.0000000e+00 8.6000004e+00 0.0000000e+00 
1.7467257e-01 8.4178057e+00 0.0000000e+00 
3.5083947e-01 8.3232317e+00 0.0000000e+00 
1.0000000e+00 8.1999998e+00 0.0000000e+00 
5.2511263e-01 8.2268429e+00 0.0000000e+00 
0.0000000e+00 8.3999996e+00 0.0000000e+00 
7.5983411e-01 8.1149063e+00 0.0000000e+00 
1.8103610e-01 8.2179594e+00 0.0000000e+00 
3.5745192e-01 8.1241884e+00 0.0000000e+00 
1.0000000e+00 8.0000000e+00 0.0000000e+00 
5.3222626e-01 8.0272846e+00 0.0000000e+00 
0.0000000e+00 8.1999998e+00 0.0000000e+00 
7.5571120e-01 7.9173551e+00 0.0000000e+00 
1.8344399e-01 8.0151854e+00 0.0000000e+00 
3.6146736e-01 7.9243879e+00 0.0000000e+00 
1.0000000e+00 7.8000002e+00 0.0000000e+00 
5.3374660e-01 7.8279252e+00 0.0000000e+00 
0.0000000e+00 8.0000000e+00 0.0000000e+00 
7.6374203e-01 7.7163153e+00 0.0000000e+00 
1.9437179e-01 7.8156433e+00 0.0000000e+00 
3.7308612e-01 7.7272835e+00 0.0000000e+00 
1.0000000e+00 7.5999999e+00 0.0000000e+00 
5.4554766e-01 7.6299233e+00 0.0000000e+00 
0.0000000e+00 7.8000002e+00 0.0000000e+00 
7.4744660e-01 7.5226874e+00 0.0000000e+00 
2.0444529e-01 7.6206732e+00 0.0000000e+00 
3.8187346e-01 7.5294333e+00 0.0000000e+00 
0.0000000e+00 7.5999999e+00 0.0000000e+00 
1.0000000e+00 7.4000001e+00 0.0000000e+00 
5.2131432e-01 7.4393973e+00 0.0000000e+00 
1.9729473e-01 7.4537926e+00 0.0000000e+00 
7.0935732e-01 7.3327885e+00 0.0000000e+00 
3.5328710e-01 7.3320160e+00 0.0000000e+00 
8.4863865e-01 7.2198439e+00 0.0000000e+00 
0.0000000e+00 7.4000001e+00 0.0000000e+00 
5.3123343e-01 7.2420211e+00 0.0000000e+00 
1.0000000e+00 7.1999998e+00 0.0000000e+00 
1.7718045e-01 7.2569203e+00 0.0000000e+00 
6.6225648e-01 7.1541371e+00 0.0000000e+00 
3.4724638e-01 7.1689978e+00 0.0000000e+00 
8.3611876e-01 7.0656843e+00 0.0000000e+00 
0.0000000e+00 7.1999998e+00 0.0000000e+00 
4.9535713e-01 7.0473509e+00 0.0000000e+00 
1.0000000e+00 7.0000000e+00 0.0000000e+00 
1.7387313e-01 7.0734706e+00 0.0000000e+00 
6.6474640e-01 6.9560146e+00 0.0000000e+00 
3.4690949e-01 6.9773350e+00 0.0000000e+00 
8.4107113e-01 6.8641090e+00 0.0000000e+00 
0.0000000e+00 7.0000000e+00 0.0000000e+00 
5.2873749e-01 6.8578229e+00 0.0000000e+00 
1.0000000e+00 6.8000002e+00 0.0000000e+00 
1.7445621e-01 6.8769779e+00 0.0000000e+00 
6.7736709e-01 6.7575765e+00 0.0000000e+00 
3.4595537e-01 6.7778087e+00 0.0000000e+00 
8.3462298e-01 6.6689000e+00 0.0000000e+00 
0.0000000e+00 6.8000002e+00 0.0000000e+00 
5.0501287e-01 6.6597099e+00 0.0000000e+00 
1.0000000e+00 6.5999999e+00 0.0000000e+00 
1.8097465e-01 6.6789780e+00 0.0000000e+00 
6.6962856e-01 6.5595260e+00 0.0000000e+00 
3.2066780e-01 6.5871606e+00 0.0000000e+00 
8.3965176e-01 6.4710097e+00 0.0000000e+00 
0.0000000e+00 6.5999999e+00 0.0000000e+00 
4.8932999e-01 6.4914999e+00 0.0000000e+00 
1.0000000e+00 6.4000001e+00 0.0000000e+00 
1.4997987e-01 6.4839683e+00 0.0000000e+00 
6.6350561e-01 6.3954086e+00 0.0000000e+00 
3.2280096e-01 6.3877153e+00 0.0000000e+00 
8.3153027e-01 6.2889266e+00 0.0000000e+00 
0.0000000e+00 6.4000001e+00 0.0000000e+00 
4.9695736e-01 6.2927222e+00 0.0000000e+00 
1.0000000e+00 6.1999998e+00 0.0000000e+00 
1.6071729e-01 6.2864423e+00 0.0000000e+00 
6.5358984e-01 6.1999998e+00 0.0000000e+00 
3.3329538e-01 6.1896143e+00 0.0000000e+00 
8.1998920e-01 6.0895286e+00 0.0000000e+00 
0.0000000e+00 6.1999998e+00 0.0000000e+00 
4.8038477e-01 6.0999999e+00 0.0000000e+00 
1.7059118e-01 6.0888028e+00 0.0000000e+00 
1.0000000e+00 6.0000000e+00 0.0000000e+00 
6.5358984e-01 6.0000000e+00 0.0000000e+00 
3.0717969e-01 6.0000000e+00 0.0000000e+00 
8.2679492e-01 5.9000001e+00 0.0000000e+00 
0.0000000e+00 6.0000000e+00 0.0000000e+00 
4.8038477e-01 5.9000001e+00 0.0000000e+00 
1.3397460e-01 5.9000001e+00 0.0000000e+00 
1.0000000e+00 5.8000002e+00 0.0000000e+00 
6.5358984e-01 5.8000002e+00 0.0000000e+00 
3.0717969e-01 5.8000002e+00 0.0000000e+00 
8.2679492e-01 5.6999998e+00 0.0000000e+00 
0.0000000e+00 5.8000002e+00 0.0000000e+00 
4.8038477e-01 5.6999998e+00 0.0000000e+00 
1.3397460e-01 5.6999998e+00 0.0000000e+00 
1.0000000e+00 5.5999999e+00 0.0000000e+00 
6.5358984e-01 5.5999999e+00 0.0000000e+00 
3.2231969e-01 5.6385756e+00 0.0000000e+00 
8.2679492e-01 5.5000000e+00 0.0000000e+00 
0.0000000e+00 5.5999999e+00 0.0000000e+00 
4.8038477e-01 5.5000000e+00 0.0000000e+00 
1.7059118e-01 5.5111971e+00 0.0000000e+00 
1.0000000e+00 5.4000001e+00 0.0000000e+00 
6.5358984e-01 5.4000001e+00 0.0000000e+00 
3.3329538e-01 5.3896141e+00 0.0000000e+00 
8.2679492e-01 5.3000002e+00 0.0000000e+00 
0.0000000e+00 5.4000001e+00 0.0000000e+00 
4.8038477e-01 5.3000002e+00 0.0000000e+00 
1.7059118e-01 5.2888031e+00 0.0000000e+00 
1.0000000e+00 5.1999998e+00 0.0000000e+00 
6.5358984e-01 5.1999998e+00 0.0000000e+00 
3.0717969e-01 5.1999998e+00 0.0000000e+00 
8.2679492e-01 5.0999999e+00 0.0000000e+00 
0.0000000e+00 5.1999998e+00 0.0000000e+00 
4.8038477e-01 5.0999999e+00 0.0000000e+00 
1.3397460e-01 5.0999999e+00 0.0000000e+00 
1.0000000e+00 5.0000000e+00 0.0000000e+00 
6.5358984e-01 5.0000000e+00 0.0000000e+00 
3.0717969e-01 5.0000000e+00 0.0000000e+00 
0.0000000e+00 5.0000000e+00 0.0000000e+00 
8.2679492e-01 4.9000001e+00 0.0000000e+00 
4.8038477e-01 4.9000001e+00 0.0000000e+00 
1.3397460e-01 4.9000001e+00 0.0000000e+00 
1.0000000e+00 4.8000002e+00 0.0000000e+00 
6.5358984e-01 4.8000002e+00 0.0000000e+00 
3.0717969e-01 4.8000002e+00 0.0000000e+00 
0.0000000e+00 4.8000002e+00 0.0000000e+00 
8.2679492e-01 4.6999998e+00 0.0000000e+00 
4.8038477e-01 4.6999998e+00 0.0000000e+00 
1.3397460e-01 4.6999998e+00 0.0000000e+00 
1.0000000e+00 4.5999999e+00 0.0000000e+00 
6.5358984e-01 4.5999999e+00 0.0000000e+00 
3.0717969e-01 4.5999999e+00 0.0000000e+00 
0.0000000e+00 4.5999999e+00 0.0000000e+00 
8.2679492e-01 4.5000000e+00 0.0000000e+00 
4.8038477e-01 4.5000000e+00 0.0000000e+00 
1.3397460e-01 4.5000000e+00 0.0000000e+00 
1.0000000e+00 4.4000001e+00 0.0000000e+00 
6.5358984e-01 4.4000001e+00 0.0000000e+00 
3.0717969e-01 4.4000001e+00 0.0000000e+00 
8.3046603e-01 4.3165317e+00 0.0000000e+00 
0.0000000e+00 4.4000001e+00 0.0000000e+00 
4.8038477e-01 4.3000002e+00 0.0000000e+00 
1.7059118e-01 4.3111973e+00 0.0000000e+00 
6.6123927e-01 4.2184782e+00 0.0000000e+00 
1.0000000e+00 4.1999998e+00 0.0000000e+00 
3.3329538e-01 4.2103858e+00 0.0000000e+00 
8.3268768e-01 4.1176395e+00 0.0000000e+00 
0.0000000e+00 4.1999998e+00 0.0000000e+00 
4.9695736e-01 4.1072779e+00 0.0000000e+00 
1.6071729e-01 4.1135573e+00 0.0000000e+00 
1.0000000e+00 4.0000000e+00 0.0000000e+00 
3.2280096e-01 4.0122848e+00 0.0000000e+00 
6.4947557e-01 3.9632084e+00 0.0000000e+00 
8.4590596e-01 3.9203768e+00 0.0000000e+00 
0.0000000e+00 4.0000000e+00 0.0000000e+00 
4.7627035e-01 3.9377375e+00 0.0000000e+00 
1.4997987e-01 3.9160316e+00 0.0000000e+00 
1.0000000e+00 3.8000000e+00 0.0000000e+00 
3.2066780e-01 3.8128395e+00 0.0000000e+00 
5.1165128e-01 3.7661045e+00 0.0000000e+00 
0.0000000e+00 3.8000000e+00 0.0000000e+00 
7.4880123e-01 3.7184730e+00 0.0000000e+00 
1.8097465e-01 3.7210221e+00 0.0000000e+00 
1.0000000e+00 3.5999999e+00 0.0000000e+00 
3.4595537e-01 3.6221914e+00 0.0000000e+00 
5.2873749e-01 3.5421770e+00 0.0000000e+00 
0.0000000e+00 3.5999999e+00 0.0000000e+00 
1.7445621e-01 3.5230222e+00 0.0000000e+00 
7.1247655e-01 3.4632580e+00 0.0000000e+00 
1.0000000e+00 3.4000001e+00 0.0000000e+00 
3.4690949e-01 3.4226651e+00 0.0000000e+00 
0.0000000e+00 3.4000001e+00 0.0000000e+00 
5.1989859e-01 3.3223066e+00 0.0000000e+00 
8.2679492e-01 3.3000000e+00 0.0000000e+00 
1.7356591e-01 3.3231418e+00 0.0000000e+00 
1.0000000e+00 3.2000000e+00 0.0000000e+00 
3.4647828e-01 3.2226951e+00 0.0000000e+00 
6.5358984e-01 3.2000000e+00 0.0000000e+00 
5.0604391e-01 3.1465836e+00 0.0000000e+00 
[...]
POINT_DATA 340
FIELD FieldData 3
DISPLACEMENT 3 340  float
-5.4864336e-07 3.7519243e-08 0.0000000e+00 
-5.3378199e-07 3.7509913e-08 0.0000000e+00 
-5.4864017e-07 2.2660144e-08 0.0000000e+00 
-5.3447008e-07 1.7425146e-08 0.0000000e+00 
-5.2175415e-07 2.5746907e-08 0.0000000e+00 
-5.4863949e-07 7.8047533e-09 0.0000000e+00 
-5.1891215e-07 3.7498779e-08 0.0000000e+00 
-5.3577270e-07 3.7466330e-10 0.0000000e+00 
-5.1822383e-07 1.0465302e-08 0.0000000e+00 
-5.0658053e-07 2.5789250e-08 0.0000000e+00 
-5.4864671e-07 -7.0481536e-09 0.0000000e+00 
-5.0403810e-07 3.7477580e-08 0.0000000e+00 
-5.2144287e-07 -6.6541039e-09 0.0000000e+00 
-5.3483757e-07 -1.6049732e-08 0.0000000e+00 
-4.9884494e-07 1.3099524e-08 0.0000000e+00 
-5.0594059e-07 7.2188595e-11 0.0000000e+00 
-4.9170797e-07 2.6095879e-08 0.0000000e+00 
-5.4866103e-07 -2.1904803e-08 0.0000000e+00 
-4.8916485e-07 3.7441897e-08 0.0000000e+00 
-5.1002121e-07 -1.4470392e-08 0.0000000e+00 
-5.2068071e-07 -2.4312300e-08 0.0000000e+00 
-4.8399113e-07 1.3406591e-08 0.0000000e+00 
-4.9060134e-07 -7.6508144e-10 0.0000000e+00 
-4.7685222e-07 2.6457712e-08 0.0000000e+00 
-5.4867735e-07 -3.6764970e-08 0.0000000e+00 
-4.7429941e-07 3.7387181e-08 0.0000000e+00 
-5.3381524e-07 -3.6765087e-08 0.0000000e+00 
-4.9530445e-07 -1.9800765e-08 0.0000000e+00 
-5.1894665e-07 -3.6762682e-08 0.0000000e+00 
-4.7619949e-07 7.8768414e-10 0.0000000e+00 
-4.8335011e-07 -1.2174177e-08 0.0000000e+00 
-4.6912859e-07 1.3780882e-08 0.0000000e+00 
-5.0407010e-07 -3.6752024e-08 0.0000000e+00 
-4.6200162e-07 2.6720985e-08 0.0000000e+00 
-4.5946106e-07 3.7305163e-08 0.0000000e+00 
-4.8172569e-07 -2.3849452e-08 0.0000000e+00 
-4.6850661e-07 -1.1743820e-08 0.0000000e+00 
-4.6135116e-07 1.2122873e-09 0.0000000e+00 
-4.8919270e-07 -3.6730725e-08 0.0000000e+00 
-4.5431727e-07 1.4051028e-08 0.0000000e+00 
-4.6684980e-07 -2.3818153e-08 0.0000000e+00 
-4.4463482e-07 3.7205666e-08 0.0000000e+00 
-4.7430683e-07 -3.6690842e-08 0.0000000e+00 
-4.5366158e-07 -1.1402091e-08 0.0000000e+00 
-4.4652850e-07 1.4878971e-09 0.0000000e+00 
-4.3862690e-07 1.7725279e-08 0.0000000e+00 
-4.5944327e-07 -3.6628133e-08 0.0000000e+00 
-4.2985843e-07 3.7090299e-08 0.0000000e+00 
-4.4590161e-07 -2.3945329e-08 0.0000000e+00 
-4.3888843e-07 -1.0944577e-08 0.0000000e+00 
-4.3175083e-07 1.9342270e-09 0.0000000e+00 
-4.2372127e-07 1.8466242e-08 0.0000000e+00 
-4.4461743e-07 -3.6546002e-08 0.0000000e+00 
-4.3111925e-07 -2.3583027e-08 0.0000000e+00 
-4.2412304e-07 -1.0614532e-08 0.0000000e+00 
-4.1512743e-07 3.6950336e-08 0.0000000e+00 
-4.1701995e-07 2.1599442e-09 0.0000000e+00 
-4.2983652e-07 -3.6441225e-08 0.0000000e+00 
-4.0881497e-07 1.9297467e-08 0.0000000e+00 
-4.1638776e-07 -2.3039570e-08 0.0000000e+00 
-4.0947347e-07 -1.0099122e-08 0.0000000e+00 
-4.0045450e-07 3.6784865e-08 0.0000000e+00 
-4.0236014e-07 2.6599898e-09 0.0000000e+00 
-4.1510583e-07 -3.6315065e-08 0.0000000e+00 
-3.9433928e-07 1.8904409e-08 0.0000000e+00 
-4.0149996e-07 -2.2773854e-08 0.0000000e+00 
-3.9482919e-07 -9.7698445e-09 0.0000000e+00 
-3.8584818e-07 3.6598898e-08 0.0000000e+00 
-3.8777981e-07 2.7497147e-09 0.0000000e+00 
-4.0043386e-07 -3.6166909e-08 0.0000000e+00 
-3.7968124e-07 1.9382465e-08 0.0000000e+00 
-3.8691400e-07 -2.1876430e-08 0.0000000e+00 
-3.8044922e-07 -8.8864684e-09 0.0000000e+00 
-3.7131966e-07 3.6387217e-08 0.0000000e+00 
-3.7337230e-07 3.5766545e-09 0.0000000e+00 
-3.8582985e-07 -3.5998539e-08 0.0000000e+00 
-3.6563520e-07 1.8091296e-08 0.0000000e+00 
-3.7273196e-07 -2.1035508e-08 0.0000000e+00 
-3.6609197e-07 -8.2112388e-09 0.0000000e+00 
-3.7130246e-07 -3.5809549e-08 0.0000000e+00 
-3.5686773e-07 3.6161097e-08 0.0000000e+00 
-3.5958433e-07 1.8042230e-09 0.0000000e+00 
-3.6066041e-07 -2.1446741e-08 0.0000000e+00 
-3.5193472e-07 1.5240337e-08 0.0000000e+00 
-3.5185909e-07 -1.0207038e-08 0.0000000e+00 
-3.4387418e-07 2.5118897e-08 0.0000000e+00 
-3.5685767e-07 -3.5593459e-08 0.0000000e+00 
-3.4539426e-07 2.4926226e-09 0.0000000e+00 
-3.4252577e-07 3.5902882e-08 0.0000000e+00 
-3.4650751e-07 -2.2746203e-08 0.0000000e+00 
-3.3912005e-07 1.1791676e-08 0.0000000e+00 
-3.4017631e-07 -1.0584397e-08 0.0000000e+00 
-3.3286284e-07 2.4075380e-08 0.0000000e+00 
-3.4250769e-07 -3.5349444e-08 0.0000000e+00 
-3.3148979e-07 -6.4960648e-11 0.0000000e+00 
-3.2827916e-07 3.5616402e-08 0.0000000e+00 
-3.3340552e-07 -2.2831767e-08 0.0000000e+00 
-3.2502152e-07 1.1872435e-08 0.0000000e+00 
-3.2652795e-07 -1.0529432e-08 0.0000000e+00 
-3.1858025e-07 2.4215742e-08 0.0000000e+00 
-3.2826316e-07 -3.5082468e-08 0.0000000e+00 
-3.1805874e-07 2.2756532e-09 0.0000000e+00 
-3.1415004e-07 3.5305170e-08 0.0000000e+00 
-3.1947178e-07 -2.2614563e-08 0.0000000e+00 
-3.1102059e-07 1.2642622e-08 0.0000000e+00 
-3.1243368e-07 -1.0513532e-08 0.0000000e+00 
-3.0485876e-07 2.3544038e-08 0.0000000e+00 
-3.1413299e-07 -3.4792535e-08 0.0000000e+00 
-3.0413710e-07 6.0077399e-10 0.0000000e+00 
-3.0014408e-07 3.4972366e-08 0.0000000e+00 
-3.0554799e-07 -2.1965642e-08 0.0000000e+00 
-2.9716733e-07 1.1986372e-08 0.0000000e+00 
-2.9908938e-07 -1.2182321e-08 0.0000000e+00 
-2.9108296e-07 2.3658634e-08 0.0000000e+00 
-3.0012998e-07 -3.4484341e-08 0.0000000e+00 
-2.9241593e-07 -4.9069604e-10 0.0000000e+00 
-2.8627298e-07 3.4613553e-08 0.0000000e+00 
-2.9197349e-07 -2.3904896e-08 0.0000000e+00 
-2.8578651e-07 1.1463348e-08 0.0000000e+00 
-2.8525332e-07 -1.1918104e-08 0.0000000e+00 
-2.7852289e-07 2.2873239e-08 0.0000000e+00 
-2.8625399e-07 -3.4138690e-08 0.0000000e+00 
-2.7869254e-07 2.9199806e-11 0.0000000e+00 
-2.7254649e-07 3.4233850e-08 0.0000000e+00 
-2.7834355e-07 -2.2932284e-08 0.0000000e+00 
-2.7236410e-07 1.0659273e-08 0.0000000e+00 
-2.7165069e-07 -1.1083081e-08 0.0000000e+00 
-2.6490747e-07 2.1830644e-08 0.0000000e+00 
-2.7252776e-07 -3.3778406e-08 0.0000000e+00 
-2.6552988e-07 -1.0986210e-09 0.0000000e+00 
-2.6485029e-07 -2.2014966e-08 0.0000000e+00 
-2.5897270e-07 3.3836610e-08 0.0000000e+00 
-2.5877813e-07 1.0531518e-08 0.0000000e+00 
-2.5878199e-07 -1.2723458e-08 0.0000000e+00 
-2.5211935e-07 2.2030337e-08 0.0000000e+00 
-2.5895395e-07 -3.3402838e-08 0.0000000e+00 
-2.5202189e-07 -1.0908476e-09 0.0000000e+00 
-2.5212512e-07 -2.4217281e-08 0.0000000e+00 
-2.4555879e-07 3.3410895e-08 0.0000000e+00 
-2.4535422e-07 1.0394456e-08 0.0000000e+00 
-2.4535777e-07 -1.2573440e-08 0.0000000e+00 
-2.3878493e-07 2.1742501e-08 0.0000000e+00 
-2.4553506e-07 -3.2984467e-08 0.0000000e+00 
-2.3868162e-07 -1.0815709e-09 0.0000000e+00 
-2.3879292e-07 -2.3918309e-08 0.0000000e+00 
-2.3231797e-07 3.2963630e-08 0.0000000e+00 
-2.3210326e-07 1.0249817e-08 0.0000000e+00 
-2.3464398e-07 -1.1448803e-08 0.0000000e+00 
-2.2562652e-07 2.1439407e-08 0.0000000e+00 
-2.3229877e-07 -3.2542751e-08 0.0000000e+00 
-2.2551961e-07 -1.0739037e-09 0.0000000e+00 
-2.2634880e-07 -2.1231324e-08 0.0000000e+00 
-2.1925557e-07 3.2495393e-08 0.0000000e+00 
-2.1903224e-07 1.0097608e-08 0.0000000e+00 
-2.1835250e-07 -1.0547692e-08 0.0000000e+00 
-2.1264933e-07 2.1121753e-08 0.0000000e+00 
-2.1924205e-07 -3.2099116e-08 0.0000000e+00 
-2.1253837e-07 -1.0725152e-09 0.0000000e+00 
-2.1192112e-07 -2.0886823e-08 0.0000000e+00 
-2.0637810e-07 3.2005307e-08 0.0000000e+00 
-2.0614368e-07 9.9382564e-09 0.0000000e+00 
-2.0615737e-07 -1.2065108e-08 0.0000000e+00 
-1.9985991e-07 2.0788256e-08 0.0000000e+00 
-2.0637327e-07 -3.1628105e-08 0.0000000e+00 
-1.9974964e-07 -1.0591205e-09 0.0000000e+00 
-1.9989467e-07 -2.2894344e-08 0.0000000e+00 
-1.9369243e-07 3.1491634e-08 0.0000000e+00 
-1.9344934e-07 9.7736708e-09 0.0000000e+00 
-1.9347608e-07 -1.1874102e-08 0.0000000e+00 
-1.9372131e-07 -3.1113164e-08 0.0000000e+00 
-1.8726594e-07 2.0438634e-08 0.0000000e+00 
-1.8715674e-07 -1.0418454e-09 0.0000000e+00 
-1.8733313e-07 -2.2518396e-08 0.0000000e+00 
-1.8120615e-07 3.0951860e-08 0.0000000e+00 
-1.8095210e-07 9.6027373e-09 0.0000000e+00 
-1.8099233e-07 -1.1665168e-08 0.0000000e+00 
-1.8127592e-07 -3.0583241e-08 0.0000000e+00 
-1.7487301e-07 2.0069763e-08 0.0000000e+00 
-1.7476275e-07 -1.0194693e-09 0.0000000e+00 
-1.7496211e-07 -2.2112001e-08 0.0000000e+00 
-1.6892695e-07 3.0380050e-08 0.0000000e+00 
-1.6865800e-07 9.4234212e-09 0.0000000e+00 
-1.6870742e-07 -1.1439084e-08 0.0000000e+00 
-1.6900815e-07 -3.0020466e-08 0.0000000e+00 
-1.6268970e-07 1.9676895e-08 0.0000000e+00 
-1.6257447e-07 -9.9291109e-10 0.0000000e+00 
-1.6278794e-07 -2.1682252e-08 0.0000000e+00 
-1.5686801e-07 2.9767399e-08 0.0000000e+00 
-1.5657879e-07 9.2329788e-09 0.0000000e+00 
-1.5663078e-07 -1.1195632e-08 0.0000000e+00 
-1.5171376e-07 1.9507675e-08 0.0000000e+00 
-1.5695730e-07 -2.9404497e-08 0.0000000e+00 
-1.5060789e-07 -9.6373620e-10 0.0000000e+00 
-1.5146075e-07 -1.9084547e-08 0.0000000e+00 
-1.4581836e-07 9.4935872e-09 0.0000000e+00 
-1.4504460e-07 2.9100507e-08 0.0000000e+00 
-1.4537598e-07 -9.4411714e-09 0.0000000e+00 
-1.4004523e-07 1.9177985e-08 0.0000000e+00 
-1.4513414e-07 -2.8766461e-08 0.0000000e+00 
-1.3929962e-07 3.4633171e-13 0.0000000e+00 
-1.3987551e-07 -1.9196495e-08 0.0000000e+00 
-1.3349181e-07 2.8364914e-08 0.0000000e+00 
-1.3389366e-07 -9.7899555e-09 0.0000000e+00 
-1.3102027e-07 8.5269107e-09 0.0000000e+00 
-1.2876963e-07 1.9434815e-08 0.0000000e+00 
-1.3354014e-07 -2.8060683e-08 0.0000000e+00 
-1.2959013e-07 -1.1396544e-09 0.0000000e+00 
-1.2854984e-07 -1.9307693e-08 0.0000000e+00 
-1.2224176e-07 2.7527863e-08 0.0000000e+00 
-1.2259918e-07 -9.6307726e-09 0.0000000e+00 
-1.1994467e-07 8.1621282e-10 0.0000000e+00 
-1.2223332e-07 -2.7272435e-08 0.0000000e+00 
-1.1739198e-07 1.3607704e-08 0.0000000e+00 
-1.1760835e-07 -1.7080115e-08 0.0000000e+00 
-1.1127003e-07 2.6719409e-08 0.0000000e+00 
-1.1206171e-07 -8.0263742e-09 0.0000000e+00 
-1.0770172e-07 1.6483631e-09 0.0000000e+00 
-1.1126396e-07 -2.6449781e-08 0.0000000e+00 
-1.0687078e-07 -1.6879566e-08 0.0000000e+00 
-1.0359837e-07 1.1124605e-08 0.0000000e+00 
-1.0072794e-07 2.5890444e-08 0.0000000e+00 
-1.0141060e-07 -7.7164533e-09 0.0000000e+00 
-1.0065181e-07 -2.5546411e-08 0.0000000e+00 
-9.6158509e-08 1.1360162e-09 0.0000000e+00 
-9.5242434e-08 1.6547844e-08 0.0000000e+00 
-9.6393734e-08 -1.6325963e-08 0.0000000e+00 
-9.0459316e-08 2.4871939e-08 0.0000000e+00 
-9.1109499e-08 -7.4621935e-09 0.0000000e+00 
-8.9964850e-08 7.6853475e-09 0.0000000e+00 
-8.7242860e-08 4.5110810e-10 0.0000000e+00 
-9.0425907e-08 -2.4577423e-08 0.0000000e+00 
-8.5174193e-08 1.5872015e-08 0.0000000e+00 
-8.6299139e-08 -1.5698790e-08 0.0000000e+00 
-8.0620453e-08 2.3801169e-08 0.0000000e+00 
-8.0125339e-08 7.3513045e-09 0.0000000e+00 
-7.9947178e-08 -4.5831658e-09 0.0000000e+00 
-8.0589508e-08 -2.3545409e-08 0.0000000e+00 
-7.5529471e-08 1.5147396e-08 0.0000000e+00 
-7.5425874e-08 -1.4695208e-08 0.0000000e+00 
-7.1204568e-08 2.2674422e-08 0.0000000e+00 
-7.0872751e-08 4.3372799e-09 0.0000000e+00 
-7.0179610e-08 -6.8525270e-09 0.0000000e+00 
-7.1213591e-08 -2.2450751e-08 0.0000000e+00 
-6.6341620e-08 1.4427604e-08 0.0000000e+00 
-6.6347283e-08 -1.4202881e-08 0.0000000e+00 
-6.4252418e-08 -9.1564567e-10 0.0000000e+00 
-6.2286524e-08 2.1483416e-08 0.0000000e+00 
-6.1708974e-08 6.6108936e-09 0.0000000e+00 
-6.1741716e-08 -8.0544238e-09 0.0000000e+00 
-6.2282261e-08 -2.1275973e-08 0.0000000e+00 
-5.7623883e-08 1.3606667e-08 0.0000000e+00 
-5.7345790e-08 -6.9366829e-10 0.0000000e+00 
-5.7616543e-08 -1.3390177e-08 0.0000000e+00 
-5.3835212e-08 2.0214578e-08 0.0000000e+00 
-5.3232483e-08 6.2260974e-09 0.0000000e+00 
-5.3258109e-08 -7.5888478e-09 0.0000000e+00 
-5.3823822e-08 -2.0024618e-08 0.0000000e+00 
-4.9411963e-08 1.2750676e-08 0.0000000e+00 
-4.9121009e-08 -6.5805383e-10 0.0000000e+00 
-4.9398654e-08 -1.2533161e-08 0.0000000e+00 
-4.5904706e-08 1.8876360e-08 0.0000000e+00 
-4.5269783e-08 5.8133565e-09 0.0000000e+00 
-4.5301334e-08 -7.1027761e-09 0.0000000e+00 
-4.5890587e-08 -1.8722876e-08 0.0000000e+00 
-4.1730836e-08 1.1852234e-08 0.0000000e+00 
-4.1420027e-08 -6.1540140e-10 0.0000000e+00 
-4.1785924e-08 -1.3076328e-08 0.0000000e+00 
-3.8519698e-08 1.7467263e-08 0.0000000e+00 
-3.7852800e-08 5.3750284e-09 0.0000000e+00 
-3.7882906e-08 -6.5656027e-09 0.0000000e+00 
-3.8490139e-08 -1.7303435e-08 0.0000000e+00 
-3.4610675e-08 1.0912447e-08 0.0000000e+00 
-3.4283289e-08 -5.6937843e-10 0.0000000e+00 
-3.4671949e-08 -1.2051481e-08 0.0000000e+00 
-3.1717768e-08 1.5983163e-08 0.0000000e+00 
-3.1010838e-08 4.9117697e-09 0.0000000e+00 
-3.1043033e-08 -6.0071859e-09 0.0000000e+00 
-3.1685055e-08 -1.5840811e-08 0.0000000e+00 
-2.8564070e-08 9.6214414e-09 0.0000000e+00 
-2.7738198e-08 -5.2055865e-10 0.0000000e+00 
-2.8143726e-08 -1.0967938e-08 0.0000000e+00 
-2.5507680e-08 1.4465587e-08 0.0000000e+00 
-2.4771579e-08 4.4388559e-09 0.0000000e+00 
-2.4806118e-08 -5.4235261e-09 0.0000000e+00 
-2.5474874e-08 -1.4307785e-08 0.0000000e+00 
-2.2682865e-08 9.0455634e-09 0.0000000e+00 
-2.1803727e-08 -4.7115151e-10 0.0000000e+00 
-2.2231015e-08 -9.8416981e-09 0.0000000e+00 
-1.9857996e-08 4.1410240e-09 0.0000000e+00 
-1.9924112e-08 1.2847643e-08 0.0000000e+00 
-1.9198570e-08 -4.8065929e-09 0.0000000e+00 
-1.9909576e-08 -1.2678506e-08 0.0000000e+00 
-1.7379016e-08 7.9037372e-09 0.0000000e+00 
-1.7238250e-08 -1.4795531e-10 0.0000000e+00 
-1.7159518e-08 -7.8208968e-09 0.0000000e+00 
-1.4860393e-08 3.6926748e-09 0.0000000e+00 
-1.5004344e-08 1.1184426e-08 0.0000000e+00 
-1.4455494e-08 -3.6356269e-09 0.0000000e+00 
-1.3443583e-08 7.3728694e-09 0.0000000e+00 
-1.4977299e-08 -1.1049083e-08 0.0000000e+00 
-1.2557093e-08 3.8003584e-10 0.0000000e+00 
-1.2580634e-08 -6.9313222e-09 0.0000000e+00 
-1.0653986e-08 3.5577781e-09 0.0000000e+00 
-1.0745076e-08 9.4481276e-09 0.0000000e+00 
-1.0151675e-08 -3.0990739e-09 0.0000000e+00 
-1.0736906e-08 -9.2982448e-09 0.0000000e+00 
-9.1402059e-09 6.3297461e-09 0.0000000e+00 
-8.5502938e-09 3.0588374e-10 0.0000000e+00 
-8.6096987e-09 -5.4080465e-09 0.0000000e+00 
-6.9761903e-09 2.9623362e-09 0.0000000e+00 
-7.2005091e-09 7.6137017e-09 0.0000000e+00 
-6.6171726e-09 -2.2715785e-09 0.0000000e+00 
-7.1989397e-09 -7.5235960e-09 0.0000000e+00 
-5.8227934e-09 5.0741589e-09 0.0000000e+00 
-5.2212035e-09 2.7596500e-10 0.0000000e+00 
-5.3866249e-09 -4.2979997e-09 0.0000000e+00 
-4.0181689e-09 2.2891411e-09 0.0000000e+00 
-4.4123172e-09 5.7265956e-09 0.0000000e+00 
-3.7277861e-09 -1.6887149e-09 0.0000000e+00 
-4.3916879e-09 -5.6596838e-09 0.0000000e+00 
-3.0279428e-09 3.5952774e-09 0.0000000e+00 
-2.4794395e-09 2.5190511e-10 0.0000000e+00 
-2.8764504e-09 -3.0877632e-09 0.0000000e+00 
-1.6643783e-09 1.4821735e-09 0.0000000e+00 
-2.3910109e-09 3.7347752e-09 0.0000000e+00 
-1.6005193e-09 -1.1119499e-09 0.0000000e+00 
-1.4908105e-09 2.2540345e-09 0.0000000e+00 
-2.3544757e-09 -3.7131795e-09 0.0000000e+00 
-7.7402940e-10 1.8369073e-10 0.0000000e+00 
-9.4129027e-10 -1.6093198e-09 0.0000000e+00 
-5.2556492e-10 9.3160413e-10 0.0000000e+00 
-9.5706743e-10 1.7261313e-09 0.0000000e+00 
-1.9494382e-10 -3.1255218e-10 0.0000000e+00 
-9.9506270e-10 -1.7165526e-09 0.0000000e+00 
0.0000000e+00 0.0000000e+00 0.0000000e+00 
0.0000000e+00 0.0000000e+00 0.0000000e+00 
0.0000000e+00 0.0000000e+00 0.0000000e+00 
0.0000000e+00 0.0000000e+00 0.0000000e+00 
0.0000000e+00 0.0000000e+00 0.0000000e+00 
0.0000000e+00 0.0000000e+00 0.0000000e+00 
REACTION 3 340  float
-5.9008477e-07 -6.1453653e-07 0.0000000e+00 
-3.0427784e-06 -6.0256576e-07 0.0000000e+00 
-7.5540584e-07 -3.7784177e-06 0.0000000e+00 
6.7345195e-07 1.6707511e-06 0.0000000e+00 
4.6469563e-06 8.8277807e-07 0.0000000e+00 
1.0543235e-06 -9.8538192e-07 0.0000000e+00 
-4.4060525e-06 1.1122294e-06 0.0000000e+00 
1.6615517e-06 -1.5392584e-06 0.0000000e+00 
-3.8176058e-08 3.8225340e-07 0.0000000e+00 
-7.1454525e-07 -2.4147550e-07 0.0000000e+00 
-2.7040403e-06 -3.7296209e-07 0.0000000e+00 
-1.4498750e-06 -2.0009977e-06 0.0000000e+00 
-1.0120788e-06 -1.5610774e-06 0.0000000e+00 
-4.2579877e-06 7.4575132e-07 0.0000000e+00 
3.4254385e-06 1.2110912e-06 0.0000000e+00 
-2.8838065e-06 9.5784105e-07 0.0000000e+00 
4.8283237e-06 -2.7360618e-06 0.0000000e+00 
4.7516137e-06 -4.1433805e-06 0.0000000e+00 
-4.2568668e-06 1.5336263e-06 0.0000000e+00 
8.9117987e-07 2.5137022e-06 0.0000000e+00 
-2.4398050e-06 4.3611294e-06 0.0000000e+00 
-3.8913947e-07 -1.6945511e-06 0.0000000e+00 
-2.3298960e-06 9.0407065e-07 0.0000000e+00 
1.9199013e-06 3.0590591e-06 0.0000000e+00 
-1.7523141e-06 6.2676446e-07 0.0000000e+00 
-2.6074158e-06 -1.1860385e-06 0.0000000e+00 
4.8988591e-06 -4.1547596e-06 0.0000000e+00 
-7.9855670e-07 8.2454989e-07 0.0000000e+00 
3.7324646e-06 9.9372312e-07 0.0000000e+00 
2.9926232e-06 -2.5002421e-06 0.0000000e+00 
1.2574196e-06 7.7064314e-08 0.0000000e+00 
-3.3863246e-06 5.7786057e-08 0.0000000e+00 
7.4341784e-07 -9.4902452e-07 0.0000000e+00 
1.9295646e-06 -2.8416628e-06 0.0000000e+00 
-2.9718251e-06 1.0844715e-06 0.0000000e+00 
-2.3742791e-07 2.2963103e-08 0.0000000e+00 
2.6521029e-08 -3.7508569e-06 0.0000000e+00 
1.4445096e-06 2.4924393e-07 0.0000000e+00 
1.1192441e-06 2.2619581e-06 0.0000000e+00 
7.8873728e-07 3.0904760e-06 0.0000000e+00 
9.5957978e-07 1.1853874e-07 0.0000000e+00 
-3.0225829e-06 -3.4247714e-07 0.0000000e+00 
-8.1591742e-07 -1.1474117e-06 0.0000000e+00 
2.3946043e-07 3.2230141e-06 0.0000000e+00 
4.7863614e-07 -3.4293430e-06 0.0000000e+00 
8.0448081e-07 -8.5017564e-07 0.0000000e+00 
1.9518701e-07 -2.2768774e-07 0.0000000e+00 
-2.3858752e-06 2.2672405e-06 0.0000000e+00 
2.1377889e-07 -1.8392257e-06 0.0000000e+00 
2.2807146e-06 -8.5684331e-07 0.0000000e+00 
-2.6732519e-06 1.1415991e-06 0.0000000e+00 
-4.6809626e-07 -1.8387356e-08 0.0000000e+00 
5.1162732e-07 1.5307700e-06 0.0000000e+00 
5.2084903e-07 1.0763836e-06 0.0000000e+00 
4.3825648e-06 1.5191232e-06 0.0000000e+00 
-2.7723238e-06 -3.0720439e-06 0.0000000e+00 
1.6050766e-06 2.6081455e-06 0.0000000e+00 
-1.2743565e-07 -1.6303219e-06 0.0000000e+00 
2.0508301e-06 1.0132140e-06 0.0000000e+00 
-1.3958165e-06 -1.0798177e-06 0.0000000e+00 
2.2967815e-06 -4.8108905e-07 0.0000000e+00 
-2.9916955e-06 2.4406236e-06 0.0000000e+00 
1.3117350e-06 1.2050716e-06 0.0000000e+00 
2.1612969e-07 1.6340216e-06 0.0000000e+00 
1.9087642e-07 -1.2490298e-06 0.0000000e+00 
-8.9397565e-07 3.9557335e-07 0.0000000e+00 
2.7198423e-08 -1.8661268e-07 0.0000000e+00 
-1.4320440e-06 9.0870191e-07 0.0000000e+00 
3.0449928e-06 -1.8325728e-06 0.0000000e+00 
-1.1329025e-06 -1.5916111e-06 0.0000000e+00 
-1.7621984e-06 1.0321172e-06 0.0000000e+00 
-4.2209308e-07 1.0705726e-07 0.0000000e+00 
-1.4817979e-07 1.9053313e-07 0.0000000e+00 
-1.6391860e-07 2.1422049e-07 0.0000000e+00 
2.6105909e-06 4.5028449e-07 0.0000000e+00 
-9.1471222e-08 1.0280339e-06 0.0000000e+00 
-2.2830845e-06 8.6863383e-07 0.0000000e+00 
9.9413307e-07 -5.0235883e-07 0.0000000e+00 
-2.3482542e-06 3.0818836e-07 0.0000000e+00 
-4.8574559e-08 2.0417536e-07 0.0000000e+00 
-2.2933302e-06 -2.9034265e-06 0.0000000e+00 
1.3728780e-06 -2.5885325e-07 0.0000000e+00 
8.5895050e-07 1.1046059e-06 0.0000000e+00 
3.8810404e-06 -5.8049163e-06 0.0000000e+00 
1.3772428e-06 7.1827179e-07 0.0000000e+00 
-2.6338350e-06 2.8613736e-06 0.0000000e+00 
-8.0052700e-07 2.7901001e-07 0.0000000e+00 
2.0331370e-06 -1.4790202e-06 0.0000000e+00 
-4.8377564e-07 3.1946570e-07 0.0000000e+00 
-3.7787171e-07 1.0925386e-06 0.0000000e+00 
-1.7010027e-06 3.9376073e-07 0.0000000e+00 
9.0976960e-07 -1.3208548e-06 0.0000000e+00 
2.0244526e-07 1.5105051e-06 0.0000000e+00 
1.6654387e-07 -2.4239439e-06 0.0000000e+00 
1.8083882e-06 -4.2248726e-07 0.0000000e+00 
-2.9370779e-06 -2.9710088e-07 0.0000000e+00 
-7.2238788e-07 -1.3085165e-06 0.0000000e+00 
-5.6993622e-07 -3.1898790e-07 0.0000000e+00 
1.5649549e-06 7.4397218e-07 0.0000000e+00 
-8.1724875e-07 -1.2764665e-06 0.0000000e+00 
1.1230656e-07 1.4217017e-06 0.0000000e+00 
4.7669382e-06 3.0093788e-06 0.0000000e+00 
-1.4421422e-06 -8.4989171e-07 0.0000000e+00 
-5.5523464e-07 -8.6843289e-07 0.0000000e+00 
-2.5233912e-06 2.0807340e-06 0.0000000e+00 
-2.4226151e-06 -9.7043403e-07 0.0000000e+00 
2.2048102e-06 -3.7963321e-07 0.0000000e+00 
1.9090828e-07 -1.4490197e-07 0.0000000e+00 
3.7966386e-06 2.0647512e-06 0.0000000e+00 