# vtk DataFile Version 4.0
vtk output
ASCII
DATASET UNSTRUCTURED_GRID
POINTS 340 float
1.0000000e+00 1.0000000e+01 0.0000000e+00 
1.0000000e+00 9.8000002e+00 0.0000000e+00 
8.0000001e-01 1.0000000e+01 0.0000000e+00 
7.2964472e-01 9.8093147e+00 0.0000000e+00 
8.4182751e-01 9.6382694e+00 0.0000000e+00 
6.0000002e-01 1.0000000e+01 0.0000000e+00 
1.0000000e+00 9.6000004e+00 0.0000000e+00 
5.0000000e-01 9.8267946e+00 0.0000000e+00 
6.3604087e-01 9.5908260e+00 0.0000000e+00 
8.4263843e-01 9.4342804e+00 0.0000000e+00 
4.0000001e-01 1.0000000e+01 0.0000000e+00 
1.0000000e+00 9.3999996e+00 0.0000000e+00 
4.0534732e-01 9.6340141e+00 0.0000000e+00 
2.7881753e-01 9.8140564e+00 0.0000000e+00 
6.7177695e-01 9.3303623e+00 0.0000000e+00 
4.9604306e-01 9.4256926e+00 0.0000000e+00 
8.4713864e-01 9.2343493e+00 0.0000000e+00 
2.0000000e-01 1.0000000e+01 0.0000000e+00 
1.0000000e+00 9.1999998e+00 0.0000000e+00 
3.0000001e-01 9.4803848e+00 0.0000000e+00 
1.6755788e-01 9.6235323e+00 0.0000000e+00 
6.7617422e-01 9.1307087e+00 0.0000000e+00 
4.8477495e-01 9.2195473e+00 0.0000000e+00 
8.5255039e-01 9.0345669e+00 0.0000000e+00 
0.0000000e+00 1.0000000e+01 0.0000000e+00 
1.0000000e+00 9.0000000e+00 0.0000000e+00 
0.0000000e+00 9.8000002e+00 0.0000000e+00 
2.2804837e-01 9.2825413e+00 0.0000000e+00 
0.0000000e+00 9.6000004e+00 0.0000000e+00 
5.0581944e-01 9.0259790e+00 0.0000000e+00 
3.3078760e-01 9.1219988e+00 0.0000000e+00 
6.8160146e-01 8.9308100e+00 0.0000000e+00 
0.0000000e+00 9.3999996e+00 0.0000000e+00 
8.5683817e-01 8.8346405e+00 0.0000000e+00 
1.0000000e+00 8.8000002e+00 0.0000000e+00 
1.7320508e-01 9.1000004e+00 0.0000000e+00 
3.3639798e-01 8.9224386e+00 0.0000000e+00 
5.1166874e-01 8.8261728e+00 0.0000000e+00 
0.0000000e+00 9.1999998e+00 0.0000000e+00 
6.8573916e-01 8.7312880e+00 0.0000000e+00 
1.7320508e-01 8.8999996e+00 0.0000000e+00 
1.0000000e+00 8.6000004e+00 0.0000000e+00 
0.0000000e+00 9.0000000e+00 0.0000000e+00 
3.4077987e-01 8.7225189e+00 0.0000000e+00 
5.1553297e-01 8.6263428e+00 0.0000000e+00 
7.3636049e-01 8.5193882e+00 0.0000000e+00 
0.0000000e+00 8.8000002e+00 0.0000000e+00 
1.0000000e+00 8.3999996e+00 0.0000000e+00 
1.7061394e-01 8.6176825e+00 0.0000000e+00 
3.4670532e-01 8.5231361e+00 0.0000000e+00 
5.2180642e-01 8.4266043e+00 0.0000000e+00 
7.4737626e-01 8.3175163e+00 0.0000000e+00 
0.0000000e+00 8.6000004e+00 0.0000000e+00 
1.7467257e-01 8.4178057e+00 0.0000000e+00 
3.5083947e-01 8.3232317e+00 0.0000000e+00 
1.0000000e+00 8.1999998e+00 0.0000000e+00 
5.2511263e-01 8.2268429e+00 0.0000000e+00 
0.0000000e+00 8.3999996e+00 0.0000000e+00 
7.5983411e-01 8.1149063e+00 0.0000000e+00 
1.8103610e-01 8.2179594e+00 0.0000000e+00 
3.5745192e-01 8.1241884e+00 0.0000000e+00 
1.0000000e+00 8.0000000e+00 0.0000000e+00 
5.3222626e-01 8.0272846e+00 0.0000000e+00 
0.0000000e+00 8.1999998e+00 0.0000000e+00 
7.5571120e-01 7.9173551e+00 0.0000000e+00 
1.8344399e-01 8.0151854e+00 0.0000000e+00 
3.6146736e-01 7.9243879e+00 0.0000000e+00 
1.0000000e+00 7.8000002e+00 0.0000000e+00 
5.3374660e-01 7.8279252e+00 0.0000000e+00 
0.0000000e+00 8.0000000e+00 0.0000000e+00 
7.6374203e-01 7.7163153e+00 0.0000000e+00 
1.9437179e-01 7.8156433e+00 0.0000000e+00 
3.7308612e-01 7.7272835e+00 0.0000000e+00 
1.0000000e+00 7.5999999e+00 0.0000000e+00 
5.4554766e-01 7.6299233e+00 0.0000000e+00 
0.0000000e+00 7.8000002e+00 0.0000000e+00 
7.4744660e-01 7.5226874e+00 0.0000000e+00 
2.0444529e-01 7.6206732e+00 0.0000000e+00 
3.8187346e-01 7.5294333e+00 0.0000000e+00 
0.0000000e+00 7.5999999e+00 0.0000000e+00 
1.0000000e+00 7.4000001e+00 0.0000000e+00 
5.2131432e-01 7.4393973e+00 0.0000000e+00 
1.9729473e-01 7.4537926e+00 0.0000000e+00 
7.0935732e-01 7.3327885e+00 0.0000000e+00 
3.5328710e-01 7.3320160e+00 0.0000000e+00 
8.4863865e-01 7.2198439e+00 0.0000000e+00 
0.0000000e+00 7.4000001e+00 0.0000000e+00 
5.3123343e-01 7.2420211e+00 0.0000000e+00 
1.0000000e+00 7.1999998e+00 0.0000000e+00 
1.7718045e-01 7.2569203e+00 0.0000000e+00 
6.6225648e-01 7.1541371e+00 0.0000000e+00 
3.4724638e-01 7.1689978e+00 0.0000000e+00 
8.3611876e-01 7.0656843e+00 0.0000000e+00 
0.0000000e+00 7.1999998e+00 0.0000000e+00 
4.9535713e-01 7.0473509e+00 0.0000000e+00 
1.0000000e+00 7.0000000e+00 0.0000000e+00 
1.7387313e-01 7.0734706e+00 0.0000000e+00 
6.6474640e-01 6.9560146e+00 0.0000000e+00 
3.4690949e-01 6.9773350e+00 0.0000000e+00 
8.4107113e-01 6.8641090e+00 0.0000000e+00 
0.0000000e+00 7.0000000e+00 0.0000000e+00 
5.2873749e-01 6.8578229e+00 0.0000000e+00 
1.0000000e+00 6.8000002e+00 0.0000000e+00 
1.7445621e-01 6.8769779e+00 0.0000000e+00 
6.7736709e-01 6.7575765e+00 0.0000000e+00 
3.4595537e-01 6.7778087e+00 0.0000000e+00 
8.3462298e-01 6.6689000e+00 0.0000000e+00 
0.0000000e+00 6.8000002e+00 0.0000000e+00 
5.0501287e-01 6.6597099e+00 0.0000000e+00 
1.0000000e+00 6.5999999e+00 0.0000000e+00 
1.8097465e-01 6.6789780e+00 0.0000000e+00 
6.6962856e-01 6.5595260e+00 0.0000000e+00 
3.2066780e-01 6.5871606e+00 0.0000000e+00 
8.3965176e-01 6.4710097e+00 0.0000000e+00 
0.0000000e+00 6.5999999e+00 0.0000000e+00 
4.8932999e-01 6.4914999e+00 0.0000000e+00 
1.0000000e+00 6.4000001e+00 0.0000000e+00 
1.4997987e-01 6.4839683e+00 0.0000000e+00 
6.6350561e-01 6.3954086e+00 0.0000000e+00 
3.2280096e-01 6.3877153e+00 0.0000000e+00 
8.3153027e-01 6.2889266e+00 0.0000000e+00 
0.0000000e+00 6.4000001e+00 0.0000000e+00 
4.9695736e-01 6.2927222e+00 0.0000000e+00 
1.0000000e+00 6.1999998e+00 0.0000000e+00 
1.6071729e-01 6.2864423e+00 0.0000000e+00 
6.5358984e-01 6.1999998e+00 0.0000000e+00 
3.3329538e-01 6.1896143e+00 0.0000000e+00 
8.1998920e-01 6.0895286e+00 0.0000000e+00 
0.0000000e+00 6.1999998e+00 0.0000000e+00 
4.8038477e-01 6.0999999e+00 0.0000000e+00 
1.7059118e-01 6.0888028e+00 0.0000000e+00 
1.0000000e+00 6.0000000e+00 0.0000000e+00 
6.5358984e-01 6.0000000e+00 0.0000000e+00 
3.0717969e-01 6.0000000e+00 0.0000000e+00 
8.2679492e-01 5.9000001e+00 0.0000000e+00 
0.0000000e+00 6.0000000e+00 0.0000000e+00 
4.8038477e-01 5.9000001e+00 0.0000000e+00 
1.3397460e-01 5.9000001e+00 0.0000000e+00 
1.0000000e+00 5.8000002e+00 0.0000000e+00 
6.5358984e-01 5.8000002e+00 0.0000000e+00 
3.0717969e-01 5.8000002e+00 0.0000000e+00 
8.2679492e-01 5.6999998e+00 0.0000000e+00 
0.0000000e+00 5.8000002e+00 0.0000000e+00 
4.8038477e-01 5.6999998e+00 0.0000000e+00 
1.3397460e-01 5.6999998e+00 0.0000000e+00 
1.0000000e+00 5.5999999e+00 0.0000000e+00 
6.5358984e-01 5.5999999e+00 0.0000000e+00 
3.2231969e-01 5.6385756e+00 0.0000000e+00 
8.2679492e-01 5.5000000e+00 0.0000000e+00 
0.0000000e+00 5.5999999e+00 0.0000000e+00 
4.8038477e-01 5.5000000e+00 0.0000000e+00 
1.7059118e-01 5.5111971e+00 0.0000000e+00 
1.0000000e+00 5.4000001e+00 0.0000000e+00 
6.5358984e-01 5.4000001e+00 0.0000000e+00 
3.3329538e-01 5.3896141e+00 0.0000000e+00 
8.2679492e-01 5.3000002e+00 0.0000000e+00 
0.0000000e+00 5.4000001e+00 0.0000000e+00 
4.8038477e-01 5.3000002e+00 0.0000000e+00 
1.7059118e-01 5.2888031e+00 0.0000000e+00 
1.0000000e+00 5.1999998e+00 0.0000000e+00 
6.5358984e-01 5.1999998e+00 0.0000000e+00 
3.0717969e-01 5.1999998e+00 0.0000000e+00 
8.2679492e-01 5.0999999e+00 0.0000000e+00 
0.0000000e+00 5.1999998e+00 0.0000000e+00 
4.8038477e-01 5.0999999e+00 0.0000000e+00 
1.3397460e-01 5.0999999e+00 0.0000000e+00 
1.0000000e+00 5.0000000e+00 0.0000000e+00 
6.5358984e-01 5.0000000e+00 0.0000000e+00 
3.0717969e-01 5.0000000e+00 0.0000000e+00 
0.0000000e+00 5.0000000e+00 0.0000000e+00 
8.2679492e-01 4.9000001e+00 0.0000000e+00 
4.8038477e-01 4.9000001e+00 0.0000000e+00 
1.3397460e-01 4.9000001e+00 0.0000000e+00 
1.0000000e+00 4.8000002e+00 0.0000000e+00 
6.5358984e-01 4.8000002e+00 0.0000000e+00 
3.0717969e-01 4.8000002e+00 0.0000000e+00 
0.0000000e+00 4.8000002e+00 0.0000000e+00 
8.2679492e-01 4.6999998e+00 0.0000000e+00 
4.8038477e-01 4.6999998e+00 0.0000000e+00 
1.3397460e-01 4.6999998e+00 0.0000000e+00 
1.0000000e+00 4.5999999e+00 0.0000000e+00 
6.5358984e-01 4.5999999e+00 0.0000000e+00 
3.0717969e-01 4.5999999e+00 0.0000000e+00 
0.0000000e+00 4.5999999e+00 0.0000000e+00 
8.2679492e-01 4.5000000e+00 0.0000000e+00 
4.8038477e-01 4.5000000e+00 0.0000000e+00 
1.3397460e-01 4.5000000e+00 0.0000000e+00 
1.0000000e+00 4.4000001e+00 0.0000000e+00 
6.5358984e-01 4.4000001e+00 0.0000000e+00 
3.0717969e-01 4.4000001e+00 0.0000000e+00 
8.3046603e-01 4.3165317e+00 0.0000000e+00 
0.0000000e+00 4.4000001e+00 0.0000000e+00 
4.8038477e-01 4.3000002e+00 0.0000000e+00 
1.7059118e-01 4.3111973e+00 0.0000000e+00 
6.6123927e-01 4.2184782e+00 0.0000000e+00 
1.0000000e+00 4.1999998e+00 0.0000000e+00 
3.3329538e-01 4.2103858e+00 0.0000000e+00 
8.3268768e-01 4.1176395e+00 0.0000000e+00 
0.0000000e+00 4.1999998e+00 0.0000000e+00 
4.9695736e-01 4.1072779e+00 0.0000000e+00 
1.6071729e-01 4.1135573e+00 0.0000000e+00 
1.0000000e+00 4.0000000e+00 0.0000000e+00 
3.2280096e-01 4.0122848e+00 0.0000000e+00 
6.4947557e-01 3.9632084e+00 0.0000000e+00 
8.4590596e-01 3.9203768e+00 0.0000000e+00 
0.0000000e+00 4.0000000e+00 0.0000000e+00 
4.7627035e-01 3.9377375e+00 0.0000000e+00 
1.4997987e-01 3.9160316e+00 0.0000000e+00 
1.0000000e+00 3.8000000e+00 0.0000000e+00 
3.2066780e-01 3.8128395e+00 0.0000000e+00 
5.1165128e-01 3.7661045e+00 0.0000000e+00 
0.0000000e+00 3.8000000e+00 0.0000000e+00 
7.4880123e-01 3.7184730e+00 0.0000000e+00 
1.8097465e-01 3.7210221e+00 0.0000000e+00 
1.0000000e+00 3.5999999e+00 0.0000000e+00 
3.4595537e-01 3.6221914e+00 0.0000000e+00 
5.2873749e-01 3.5421770e+00 0.0000000e+00 
0.0000000e+00 3.5999999e+00 0.0000000e+00 
1.7445621e-01 3.5230222e+00 0.0000000e+00 
7.1247655e-01 3.4632580e+00 0.0000000e+00 
1.0000000e+00 3.4000001e+00 0.0000000e+00 
3.4690949e-01 3.4226651e+00 0.0000000e+00 
0.0000000e+00 3.4000001e+00 0.0000000e+00 
5.1989859e-01 3.3223066e+00 0.0000000e+00 
8.2679492e-01 3.3000000e+00 0.0000000e+00 
1.7356591e-01 3.3231418e+00 0.0000000e+00 
1.0000000e+00 3.2000000e+00 0.0000000e+00 
3.4647828e-01 3.2226951e+00 0.0000000e+00 
6.5358984e-01 3.2000000e+00 0.0000000e+00 
5.0604391e-01 3.1465836e+00 0.0000000e+00 
[...]
POINT_DATA 340
FIELD FieldData 3
DISPLACEMENT 3 340  float
-2.8603039e+00 2.0423687e-01 0.0000000e+00 
-2.7814529e+00 2.0418094e-01 0.0000000e+00 
-2.8602850e+00 1.2539899e-01 0.0000000e+00 
-2.7851007e+00 9.7618110e-02 0.0000000e+00 
-2.7176294e+00 1.4176254e-01 0.0000000e+00 
-2.8602805e+00 4.6582904e-02 0.0000000e+00 
-2.7025518e+00 2.0411441e-01 0.0000000e+00 
-2.7920136e+00 7.1598054e-03 0.0000000e+00 
-2.6988952e+00 6.0686886e-02 0.0000000e+00 
-2.6371129e+00 1.4197582e-01 0.0000000e+00 
-2.8603225e+00 -3.2218631e-02 0.0000000e+00 
-2.6236262e+00 2.0398870e-01 0.0000000e+00 
-2.7159798e+00 -3.0131850e-02 0.0000000e+00 
-2.7870581e+00 -7.9978354e-02 0.0000000e+00 
-2.5960610e+00 7.4649796e-02 0.0000000e+00 
-2.6337154e+00 5.5476860e-03 0.0000000e+00 
-2.5581930e+00 1.4358567e-01 0.0000000e+00 
-2.8604062e+00 -1.1104216e-01 0.0000000e+00 
-2.5447054e+00 2.0377779e-01 0.0000000e+00 
-2.6553752e+00 -7.1597658e-02 0.0000000e+00 
-2.7119451e+00 -1.2381615e-01 0.0000000e+00 
-2.5172398e+00 7.6266356e-02 0.0000000e+00 
-2.5523164e+00 1.1038475e-03 0.0000000e+00 
-2.4793658e+00 1.4548109e-01 0.0000000e+00 
-2.8605015e+00 -1.8988635e-01 0.0000000e+00 
-2.4658306e+00 2.0345490e-01 0.0000000e+00 
-2.7816458e+00 -1.8988816e-01 0.0000000e+00 
-2.5772822e+00 -9.9871606e-02 0.0000000e+00 
-2.7027524e+00 -1.8987516e-01 0.0000000e+00 
-2.4758933e+00 9.3346126e-03 0.0000000e+00 
-2.5138409e+00 -5.9412260e-02 0.0000000e+00 
-2.4383779e+00 7.8234024e-02 0.0000000e+00 
-2.6238120e+00 -1.8981376e-01 0.0000000e+00 
-2.4005752e+00 1.4684473e-01 0.0000000e+00 
-2.3871150e+00 2.0297122e-01 0.0000000e+00 
-2.5052278e+00 -1.2133934e-01 0.0000000e+00 
-2.4350765e+00 -5.7123102e-02 0.0000000e+00 
-2.3971107e+00 1.1579715e-02 0.0000000e+00 
-2.5448663e+00 -1.8968996e-01 0.0000000e+00 
-2.3598006e+00 7.9643950e-02 0.0000000e+00 
-2.4262912e+00 -1.2115736e-01 0.0000000e+00 
-2.3084707e+00 2.0238474e-01 0.0000000e+00 
-2.4658709e+00 -1.8945722e-01 0.0000000e+00 
-2.3563178e+00 -5.5303015e-02 0.0000000e+00 
-2.3184798e+00 1.3032956e-02 0.0000000e+00 
-2.2765827e+00 9.9086426e-02 0.0000000e+00 
-2.3870068e+00 -1.8909088e-01 0.0000000e+00 
-2.2301192e+00 2.0170408e-01 0.0000000e+00 
-2.3151615e+00 -1.2179826e-01 0.0000000e+00 
-2.2779589e+00 -5.2868500e-02 0.0000000e+00 
-2.2401094e+00 1.5386781e-02 0.0000000e+00 
-2.1975513e+00 1.0297036e-01 0.0000000e+00 
-2.3083639e+00 -1.8861087e-01 0.0000000e+00 
-2.2367690e+00 -1.1984444e-01 0.0000000e+00 
-2.1996672e+00 -5.1107742e-02 0.0000000e+00 
-2.1520343e+00 2.0087816e-01 0.0000000e+00 
-2.1620147e+00 1.6569288e-02 0.0000000e+00 
-2.2299850e+00 -1.8799841e-01 0.0000000e+00 
-2.1185470e+00 1.0732275e-01 0.0000000e+00 
-2.1586738e+00 -1.1692454e-01 0.0000000e+00 
-2.1220198e+00 -4.8363537e-02 0.0000000e+00 
-2.0742910e+00 1.9990139e-01 0.0000000e+00 
-2.0843291e+00 1.9201638e-02 0.0000000e+00 
-2.1519010e+00 -1.8726104e-01 0.0000000e+00 
-2.0418584e+00 1.0518287e-01 0.0000000e+00 
-2.0797842e+00 -1.1546996e-01 0.0000000e+00 
-2.0444355e+00 -4.6603899e-02 0.0000000e+00 
-1.9969392e+00 1.9880314e-01 0.0000000e+00 
-2.0071023e+00 1.9658955e-02 0.0000000e+00 
-2.0741620e+00 -1.8639533e-01 0.0000000e+00 
-1.9642464e+00 1.0764562e-01 0.0000000e+00 
-2.0025313e+00 -1.1066537e-01 0.0000000e+00 
-1.9682899e+00 -4.1911475e-02 0.0000000e+00 
-1.9200444e+00 1.9755237e-01 0.0000000e+00 
-1.9308331e+00 2.4011603e-02 0.0000000e+00 
-1.9968221e+00 -1.8541190e-01 0.0000000e+00 
-1.8899162e+00 1.0074204e-01 0.0000000e+00 
-1.9274580e+00 -1.0615751e-01 0.0000000e+00 
-1.8923094e+00 -3.8323358e-02 0.0000000e+00 
-1.9199324e+00 -1.8430850e-01 0.0000000e+00 
-1.8436000e+00 1.9621551e-01 0.0000000e+00 
-1.8578871e+00 1.4616014e-02 0.0000000e+00 
-1.8635954e+00 -1.0827770e-01 0.0000000e+00 
-1.8174582e+00 8.5595690e-02 0.0000000e+00 
-1.8170404e+00 -4.8848260e-02 0.0000000e+00 
-1.7748824e+00 1.3773566e-01 0.0000000e+00 
-1.8435272e+00 -1.8304740e-01 0.0000000e+00 
-1.7828691e+00 1.8231485e-02 0.0000000e+00 
-1.7678010e+00 1.9468924e-01 0.0000000e+00 
-1.7887731e+00 -1.1507055e-01 0.0000000e+00 
-1.7497281e+00 6.7317389e-02 0.0000000e+00 
-1.7552987e+00 -5.0818060e-02 0.0000000e+00 
-1.7167119e+00 1.3212623e-01 0.0000000e+00 
-1.7676791e+00 -1.8162371e-01 0.0000000e+00 
-1.7094136e+00 4.7121639e-03 0.0000000e+00 
-1.6925632e+00 1.9299473e-01 0.0000000e+00 
-1.7195569e+00 -1.1544343e-01 0.0000000e+00 
-1.6752797e+00 6.7674838e-02 0.0000000e+00 
-1.6832207e+00 -5.0492391e-02 0.0000000e+00 
-1.6413285e+00 1.3272889e-01 0.0000000e+00 
-1.6924503e+00 -1.8006672e-01 0.0000000e+00 
-1.6385233e+00 1.7039252e-02 0.0000000e+00 
-1.6180148e+00 1.9115341e-01 0.0000000e+00 
-1.6460063e+00 -1.1420454e-01 0.0000000e+00 
-1.6014183e+00 7.1652375e-02 0.0000000e+00 
-1.6088555e+00 -5.0372079e-02 0.0000000e+00 
-1.5689721e+00 1.2904137e-01 0.0000000e+00 
-1.6178935e+00 -1.7837691e-01 0.0000000e+00 
-1.5651124e+00 8.1881247e-03 0.0000000e+00 
-1.5441900e+00 1.8918341e-01 0.0000000e+00 
-1.5725775e+00 -1.1068205e-01 0.0000000e+00 
-1.5284072e+00 6.8108723e-02 0.0000000e+00 
-1.5385197e+00 -5.9121527e-02 0.0000000e+00 
-1.4964099e+00 1.2948588e-01 0.0000000e+00 
-1.5440832e+00 -1.7658170e-01 0.0000000e+00 
-1.5033643e+00 2.4251747e-03 0.0000000e+00 
-1.4711573e+00 1.8705864e-01 0.0000000e+00 
-1.5010730e+00 -1.2078042e-01 0.0000000e+00 
-1.4684864e+00 6.5280750e-02 0.0000000e+00 
-1.4656675e+00 -5.7676777e-02 0.0000000e+00 
-1.4303216e+00 1.2519847e-01 0.0000000e+00 
-1.4710189e+00 -1.7456847e-01 0.0000000e+00 
-1.4311464e+00 5.1387995e-03 0.0000000e+00 
-1.3989747e+00 1.8480887e-01 0.0000000e+00 
-1.4293504e+00 -1.1553895e-01 0.0000000e+00 
-1.3978945e+00 6.0957085e-02 0.0000000e+00 
-1.3941299e+00 -5.3234115e-02 0.0000000e+00 
-1.3587646e+00 1.1954087e-01 0.0000000e+00 
-1.3988346e+00 -1.7247148e-01 0.0000000e+00 
-1.3619660e+00 -8.0625922e-04 0.0000000e+00 
-1.3584352e+00 -1.1058755e-01 0.0000000e+00 
-1.3276883e+00 1.8245333e-01 0.0000000e+00 
-1.3265357e+00 6.0185008e-02 0.0000000e+00 
-1.3265443e+00 -6.1787616e-02 0.0000000e+00 
-1.2916512e+00 1.2040453e-01 0.0000000e+00 
-1.3275455e+00 -1.7028703e-01 0.0000000e+00 
-1.2910651e+00 -7.8291167e-04 0.0000000e+00 
-1.2916573e+00 -1.2199951e-01 0.0000000e+00 
-1.2573417e+00 1.7992724e-01 0.0000000e+00 
-1.2561293e+00 5.9356283e-02 0.0000000e+00 
-1.2561350e+00 -6.0929999e-02 0.0000000e+00 
-1.2217710e+00 1.1868782e-01 0.0000000e+00 
-1.2571661e+00 -1.6785367e-01 0.0000000e+00 
-1.2211497e+00 -7.5253524e-04 0.0000000e+00 
-1.2217889e+00 -1.2026956e-01 0.0000000e+00 
-1.1880126e+00 1.7727073e-01 0.0000000e+00 
-1.1867388e+00 5.8481008e-02 0.0000000e+00 
-1.2000190e+00 -5.4983612e-02 0.0000000e+00 
-1.1529257e+00 1.1687858e-01 0.0000000e+00 
-1.1878607e+00 -1.6528754e-01 0.0000000e+00 
-1.1522807e+00 -7.3335785e-04 0.0000000e+00 
-1.1566644e+00 -1.0605826e-01 0.0000000e+00 
-1.1197338e+00 1.7448631e-01 0.0000000e+00 
-1.1184069e+00 5.7558794e-02 0.0000000e+00 
-1.1148338e+00 -5.0187625e-02 0.0000000e+00 
-1.0851488e+00 1.1498075e-01 0.0000000e+00 
-1.1196065e+00 -1.6271546e-01 0.0000000e+00 
-1.0844742e+00 -7.5421628e-04 0.0000000e+00 
-1.0813017e+00 -1.0406837e-01 0.0000000e+00 
-1.0525482e+00 1.7156796e-01 0.0000000e+00 
-1.0511513e+00 5.6591384e-02 0.0000000e+00 
-1.0511979e+00 -5.8027778e-02 0.0000000e+00 
-1.0184847e+00 1.1298662e-01 0.0000000e+00 
-1.0524487e+00 -1.5999107e-01 0.0000000e+00 
-1.0178018e+00 -7.0997910e-04 0.0000000e+00 
-1.0186038e+00 -1.1434840e-01 0.0000000e+00 
-9.8650187e-01 1.6850711e-01 0.0000000e+00 
-9.8504937e-01 5.5587996e-02 0.0000000e+00 
-9.8514491e-01 -5.6947920e-02 0.0000000e+00 
-9.8651850e-01 -1.5701172e-01 0.0000000e+00 
-9.5298612e-01 1.1089661e-01 0.0000000e+00 
-9.5229489e-01 -6.5524137e-04 0.0000000e+00 
-9.5323187e-01 -1.1219322e-01 0.0000000e+00 
-9.2164546e-01 1.6529509e-01 0.0000000e+00 
-9.2012715e-01 5.4542039e-02 0.0000000e+00 
-9.2027336e-01 -5.5785041e-02 0.0000000e+00 
-9.2182106e-01 -1.5394573e-01 0.0000000e+00 
-8.8869196e-01 1.0869719e-01 0.0000000e+00 
-8.8798410e-01 -5.8409543e-04 0.0000000e+00 
-8.8902187e-01 -1.0988417e-01 0.0000000e+00 
-8.5802579e-01 1.6190799e-01 0.0000000e+00 
-8.5642582e-01 5.3444706e-02 0.0000000e+00 
-8.5660845e-01 -5.4541629e-02 0.0000000e+00 
-8.5823929e-01 -1.5070735e-01 0.0000000e+00 
-8.2565260e-01 1.0636814e-01 0.0000000e+00 
-8.2491392e-01 -4.9889943e-04 0.0000000e+00 
-8.2601833e-01 -1.0746058e-01 0.0000000e+00 
-7.9571146e-01 1.5830977e-01 0.0000000e+00 
-7.9401028e-01 5.2284971e-02 0.0000000e+00 
-7.9420304e-01 -5.3215306e-02 0.0000000e+00 
-7.6901108e-01 1.0521848e-01 0.0000000e+00 
-7.9596746e-01 -1.4719999e-01 0.0000000e+00 
-7.6316810e-01 -4.0615961e-04 0.0000000e+00 
-7.6755744e-01 -9.3875624e-02 0.0000000e+00 
-7.3855978e-01 5.3466361e-02 0.0000000e+00 
-7.3478281e-01 1.5443841e-01 0.0000000e+00 
-7.3620927e-01 -4.4121455e-02 0.0000000e+00 
-7.0895422e-01 1.0321485e-01 0.0000000e+00 
-7.3503917e-01 -1.4361812e-01 0.0000000e+00 
-7.0498514e-01 4.4915089e-03 0.0000000e+00 
-7.0794410e-01 -9.4295084e-02 0.0000000e+00 
-6.7540526e-01 1.5022878e-01 0.0000000e+00 
-6.7720944e-01 -4.5880593e-02 0.0000000e+00 
-6.6251236e-01 4.8256680e-02 0.0000000e+00 
-6.5107733e-01 1.0423395e-01 0.0000000e+00 
-6.7547989e-01 -1.3971259e-01 0.0000000e+00 
-6.5514946e-01 -1.4287945e-03 0.0000000e+00 
-6.4982939e-01 -9.4719969e-02 0.0000000e+00 
-6.1773574e-01 1.4550571e-01 0.0000000e+00 
-6.1931932e-01 -4.5027934e-02 0.0000000e+00 
-6.0574579e-01 8.5443268e-03 0.0000000e+00 
-6.1754918e-01 -1.3541935e-01 0.0000000e+00 
-5.9275693e-01 7.4077621e-02 0.0000000e+00 
-5.9380108e-01 -8.3176233e-02 0.0000000e+00 
-5.6160802e-01 1.4098166e-01 0.0000000e+00 
-5.6541938e-01 -3.6800813e-02 0.0000000e+00 
-5.4317194e-01 1.2683391e-02 0.0000000e+00 
-5.6143820e-01 -1.3100524e-01 0.0000000e+00 
-5.3893316e-01 -8.2054228e-02 0.0000000e+00 
-5.2229631e-01 6.1075702e-02 0.0000000e+00 
-5.0782353e-01 1.3639057e-01 0.0000000e+00 
-5.1105869e-01 -3.5230771e-02 0.0000000e+00 
-5.0726616e-01 -1.2621585e-01 0.0000000e+00 
-4.8432130e-01 9.9368878e-03 0.0000000e+00 
-4.7977996e-01 8.8550828e-02 0.0000000e+00 
-4.8550546e-01 -7.9158582e-02 0.0000000e+00 
-4.5553046e-01 1.3080370e-01 0.0000000e+00 
-4.5859200e-01 -3.3969495e-02 0.0000000e+00 
-4.5283726e-01 4.3244358e-02 0.0000000e+00 
-4.3895206e-01 6.3391523e-03 0.0000000e+00 
-4.5517448e-01 -1.2113310e-01 0.0000000e+00 
-4.2856276e-01 8.4824279e-02 0.0000000e+00 
-4.3413496e-01 -7.5920068e-02 0.0000000e+00 
-4.0552506e-01 1.2498053e-01 0.0000000e+00 
-4.0284568e-01 4.1339375e-02 0.0000000e+00 
-4.0186086e-01 -1.9373618e-02 0.0000000e+00 
-4.0515977e-01 -1.1577311e-01 0.0000000e+00 
-3.7959966e-01 8.0855295e-02 0.0000000e+00 
-3.7891343e-01 -7.0809469e-02 0.0000000e+00 
-3.5776260e-01 1.1889650e-01 0.0000000e+00 
-3.5589188e-01 2.5836062e-02 0.0000000e+00 
-3.5232380e-01 -3.1000732e-02 0.0000000e+00 
-3.5759044e-01 -1.1014066e-01 0.0000000e+00 
-3.3304805e-01 7.6926395e-02 0.0000000e+00 
-3.3290231e-01 -6.8324089e-02 0.0000000e+00 
-3.2233506e-01 -9.5035898e-04 0.0000000e+00 
-3.1261799e-01 1.1250298e-01 0.0000000e+00 
-3.0952960e-01 3.7158016e-02 0.0000000e+00 
-3.0959514e-01 -3.7181363e-02 0.0000000e+00 
-3.1235453e-01 -1.0414410e-01 0.0000000e+00 
-2.8896123e-01 7.2473250e-02 0.0000000e+00 
-2.8740862e-01 4.7219644e-05 0.0000000e+00 
-2.8872663e-01 -6.4242646e-02 0.0000000e+00 
-2.6990962e-01 1.0572428e-01 0.0000000e+00 
-2.6670173e-01 3.4982178e-02 0.0000000e+00 
-2.6671374e-01 -3.4930889e-02 0.0000000e+00 
-2.6958477e-01 -9.7806372e-02 0.0000000e+00 
-2.4750602e-01 6.7848369e-02 0.0000000e+00 
-2.4588324e-01 4.9154987e-05 0.0000000e+00 
-2.4721716e-01 -5.9969157e-02 0.0000000e+00 
-2.2990593e-01 9.8606177e-02 0.0000000e+00 
-2.2653900e-01 3.2655139e-02 0.0000000e+00 
-2.2656806e-01 -3.2606121e-02 0.0000000e+00 
-2.2953334e-01 -9.1257356e-02 0.0000000e+00 
-2.0879872e-01 6.3009046e-02 0.0000000e+00 
-2.0706896e-01 6.9954542e-05 0.0000000e+00 
-2.0882580e-01 -6.2798560e-02 0.0000000e+00 
-1.9271944e-01 9.1138974e-02 0.0000000e+00 
-1.8919519e-01 3.0188937e-02 0.0000000e+00 
-1.8920407e-01 -3.0044461e-02 0.0000000e+00 
-1.9223498e-01 -8.4145986e-02 0.0000000e+00 
-1.7298250e-01 5.7960290e-02 0.0000000e+00 
-1.7116427e-01 8.9818473e-05 0.0000000e+00 
-1.7301638e-01 -5.7749297e-02 0.0000000e+00 
-1.5852569e-01 8.3299972e-02 0.0000000e+00 
-1.5480919e-01 2.7587967e-02 0.0000000e+00 
-1.5481512e-01 -2.7406013e-02 0.0000000e+00 
-1.5800321e-01 -7.6862186e-02 0.0000000e+00 
-1.4261462e-01 5.1171351e-02 0.0000000e+00 
-1.3829626e-01 1.0440953e-04 0.0000000e+00 
-1.4021391e-01 -5.2440364e-02 0.0000000e+00 
-1.2736851e-01 7.5305112e-02 0.0000000e+00 
-1.2351248e-01 2.4926934e-02 0.0000000e+00 
-1.2351596e-01 -2.4669835e-02 0.0000000e+00 
-1.2681723e-01 -6.9269605e-02 0.0000000e+00 
-1.1313941e-01 4.7956832e-02 0.0000000e+00 
-1.0855086e-01 1.0190154e-04 0.0000000e+00 
-1.1055822e-01 -4.6957199e-02 0.0000000e+00 
-9.8911159e-02 2.3176124e-02 0.0000000e+00 
-9.9410579e-02 6.6805623e-02 0.0000000e+00 
-9.5429085e-02 -2.1795947e-02 0.0000000e+00 
-9.8931968e-02 -6.1240647e-02 0.0000000e+00 
-8.6609147e-02 4.1895509e-02 0.0000000e+00 
-8.5714296e-02 1.4943102e-03 0.0000000e+00 
-8.5179716e-02 -3.7016802e-02 0.0000000e+00 
-7.3932171e-02 2.0620242e-02 0.0000000e+00 
-7.4814677e-02 5.8090266e-02 0.0000000e+00 
-7.1722426e-02 -1.6166260e-02 0.0000000e+00 
-6.6966385e-02 3.8944017e-02 0.0000000e+00 
-7.4249081e-02 -5.3264175e-02 0.0000000e+00 
-6.2345710e-02 3.8504675e-03 0.0000000e+00 
-6.2293760e-02 -3.2788675e-02 0.0000000e+00 
-5.2964404e-02 1.9629331e-02 0.0000000e+00 
-5.3584084e-02 4.9024034e-02 0.0000000e+00 
-5.0244175e-02 -1.3754168e-02 0.0000000e+00 
-5.3067740e-02 -4.4730153e-02 0.0000000e+00 
-4.5527291e-02 3.3338666e-02 0.0000000e+00 
-4.2375430e-02 3.1687540e-03 0.0000000e+00 
-4.2490162e-02 -2.5436159e-02 0.0000000e+00 
-3.4658384e-02 1.6308948e-02 0.0000000e+00 
-3.5939649e-02 3.9463341e-02 0.0000000e+00 
-3.2646384e-02 -9.9159889e-03 0.0000000e+00 
-3.5423305e-02 -3.6124498e-02 0.0000000e+00 
-2.9036677e-02 2.6691312e-02 0.0000000e+00 
-2.5817338e-02 2.6819997e-03 0.0000000e+00 
-2.6439285e-02 -2.0185992e-02 0.0000000e+00 
-1.9974653e-02 1.2584057e-02 0.0000000e+00 
-2.2114631e-02 2.9655276e-02 0.0000000e+00 
-1.8285379e-02 -7.3391125e-03 0.0000000e+00 
-2.1447225e-02 -2.7121795e-02 0.0000000e+00 
-1.5191852e-02 1.8878518e-02 0.0000000e+00 
-1.2216474e-02 2.1730526e-03 0.0000000e+00 
-1.3966941e-02 -1.4477393e-02 0.0000000e+00 
-8.3091035e-03 8.1389099e-03 0.0000000e+00 
-1.2094034e-02 1.9330280e-02 0.0000000e+00 
-7.7429130e-03 -4.8242295e-03 0.0000000e+00 
-7.5692129e-03 1.1847155e-02 0.0000000e+00 
-1.1308364e-02 -1.7761322e-02 0.0000000e+00 
-3.7827666e-03 1.4525331e-03 0.0000000e+00 
-4.3990198e-03 -7.5304741e-03 0.0000000e+00 
-2.6977723e-03 4.9852147e-03 0.0000000e+00 
-5.0193653e-03 8.9282217e-03 0.0000000e+00 
-8.5858692e-04 -1.3011682e-03 0.0000000e+00 
-4.6051899e-03 -8.2099540e-03 0.0000000e+00 
0.0000000e+00 0.0000000e+00 0.0000000e+00 
0.0000000e+00 0.0000000e+00 0.0000000e+00 
0.0000000e+00 0.0000000e+00 0.0000000e+00 
0.0000000e+00 0.0000000e+00 0.0000000e+00 
0.0000000e+00 0.0000000e+00 0.0000000e+00 
0.0000000e+00 0.0000000e+00 0.0000000e+00 
REACTION 3 340  float
-3.4861763e-10 -5.4933635e-10 0.0000000e+00 
7.5669776e-11 4.2677861e-10 0.0000000e+00 
2.1216118e-10 1.1212764e-10 0.0000000e+00 
3.6365022e-11 3.7618131e-11 0.0000000e+00 
2.8930192e-12 5.3772542e-11 0.0000000e+00 
3.2899683e-11 -2.2157831e-12 0.0000000e+00 
8.0798424e-11 -5.2202687e-12 0.0000000e+00 
-5.5819571e-11 -3.5570880e-11 0.0000000e+00 
-1.7356028e-10 -3.4096725e-11 0.0000000e+00 
-9.6541899e-11 -2.9163338e-11 0.0000000e+00 
-1.3357759e-11 -1.7458229e-11 0.0000000e+00 
6.3684391e-11 -1.1534773e-11 0.0000000e+00 
9.2684083e-11 4.3788972e-11 0.0000000e+00 
2.9757530e-11 1.1024487e-11 0.0000000e+00 
-4.7617021e-11 2.7835512e-11 0.0000000e+00 
1.4609380e-10 1.1499690e-12 0.0000000e+00 
2.1354030e-11 -4.4373394e-11 0.0000000e+00 
6.0887295e-11 4.3298698e-12 0.0000000e+00 
-7.7635676e-12 4.1655568e-12 0.0000000e+00 
-1.3097967e-10 2.4878100e-11 0.0000000e+00 
4.1904258e-11 -1.8734569e-11 0.0000000e+00 
6.4189987e-11 9.6989083e-12 0.0000000e+00 
-1.0722978e-11 2.2385649e-11 0.0000000e+00 
1.7824438e-11 -5.9543481e-12 0.0000000e+00 
-1.9716673e-11 2.1334046e-12 0.0000000e+00 
-1.1116885e-11 4.9347193e-12 0.0000000e+00 
-1.6981971e-11 -2.1015190e-11 0.0000000e+00 
-5.7039706e-11 -1.2429169e-11 0.0000000e+00 
-1.4011903e-11 -8.4265928e-14 0.0000000e+00 
-1.6068036e-11 -6.0537131e-12 0.0000000e+00 
-1.2612134e-11 -4.4693138e-12 0.0000000e+00 
2.4211744e-12 -1.3383961e-11 0.0000000e+00 
4.8323123e-11 -2.2730928e-11 0.0000000e+00 
-5.8861804e-11 -5.9401373e-11 0.0000000e+00 
-2.7814945e-11 -8.1303853e-12 0.0000000e+00 
7.1915807e-12 -8.9617203e-13 0.0000000e+00 
-9.9893205e-11 -1.7988278e-11 0.0000000e+00 
-2.5574209e-11 -9.3045571e-12 0.0000000e+00 
2.5659475e-11 2.7686964e-11 0.0000000e+00 
9.6046726e-11 -1.8722801e-11 0.0000000e+00 
1.3498358e-10 4.3298698e-11 0.0000000e+00 
-1.0333723e-10 -2.7872815e-11 0.0000000e+00 
-8.1699092e-12 2.1080027e-11 0.0000000e+00 
4.6669335e-11 4.2081005e-11 0.0000000e+00 
3.2651215e-11 1.8771429e-11 0.0000000e+00 
9.8679287e-11 7.3178796e-11 0.0000000e+00 
-1.1967938e-10 2.1286084e-11 0.0000000e+00 
-4.7267967e-11 -5.2722271e-11 0.0000000e+00 
2.9160008e-12 -3.5199843e-11 0.0000000e+00 
3.2826186e-11 -4.7712945e-12 0.0000000e+00 
3.4114045e-11 3.1715963e-11 0.0000000e+00 
1.1711432e-10 1.4491519e-11 0.0000000e+00 
6.2505556e-12 8.4245499e-11 0.0000000e+00 
1.0257462e-10 1.3162360e-11 0.0000000e+00 
-5.1422866e-11 2.8188563e-11 0.0000000e+00 
-1.5149038e-10 -4.7875481e-11 0.0000000e+00 
5.0256688e-11 -1.7240546e-11 0.0000000e+00 
-1.4571722e-10 4.5417892e-11 0.0000000e+00 
2.2862512e-10 5.7934102e-11 0.0000000e+00 
4.6659676e-11 -1.0686563e-11 0.0000000e+00 
-1.0338397e-12 -5.6681770e-11 0.0000000e+00 
-1.6442092e-10 1.9464430e-11 0.0000000e+00 
1.2595258e-11 2.7034375e-11 0.0000000e+00 
-2.1663382e-10 1.2030910e-10 0.0000000e+00 
3.6358028e-10 5.9163341e-11 0.0000000e+00 
3.6021630e-10 -3.2376768e-11 0.0000000e+00 
-2.9773517e-11 -4.3527404e-11 0.0000000e+00 
-9.1894936e-11 2.5622526e-10 0.0000000e+00 
-2.3152147e-10 1.6463497e-11 0.0000000e+00 
-2.8715519e-10 7.7207574e-11 0.0000000e+00 
2.7705482e-10 -1.2975931e-10 0.0000000e+00 
3.9811088e-10 -7.1576522e-11 0.0000000e+00 
-1.2228818e-10 -5.5064397e-11 0.0000000e+00 
2.4597480e-10 7.7965279e-10 0.0000000e+00 
-2.2611513e-10 1.0734702e-10 0.0000000e+00 
-4.2589043e-10 2.1221780e-10 0.0000000e+00 
-1.8078339e-10 1.6634871e-10 0.0000000e+00 
6.6536776e-10 -1.1202772e-10 0.0000000e+00 
-2.9625147e-10 -2.0894220e-10 0.0000000e+00 
-5.7394844e-10 -4.2682302e-11 0.0000000e+00 
6.3210681e-10 -1.1560530e-09 0.0000000e+00 
-3.8015902e-10 1.2508572e-10 0.0000000e+00 
8.6543817e-10 -4.6856741e-11 0.0000000e+00 
-5.4226756e-10 1.4090595e-09 0.0000000e+00 
-3.4602188e-10 -1.0906476e-10 0.0000000e+00 
2.5276206e-09 -1.0687007e-09 0.0000000e+00 
-6.8823969e-10 3.1691627e-10 0.0000000e+00 
-8.7436058e-10 5.3210769e-11 0.0000000e+00 
-1.5238717e-09 5.3893245e-10 0.0000000e+00 
1.5832252e-09 -1.5154455e-10 0.0000000e+00 
-3.6646330e-10 3.2142111e-10 0.0000000e+00 
-3.4723713e-10 -3.7548631e-10 0.0000000e+00 
1.8855348e-09 9.0988550e-11 0.0000000e+00 
-1.1622334e-09 3.9555914e-11 0.0000000e+00 
-1.4850441e-09 1.7740009e-10 0.0000000e+00 
-1.0619714e-09 -8.6627949e-10 0.0000000e+00 
2.1589728e-09 -7.4569417e-10 0.0000000e+00 
-2.6463631e-10 2.7147573e-10 0.0000000e+00 
-1.0096279e-09 -5.1662141e-10 0.0000000e+00 
3.7371382e-09 -1.2347812e-10 0.0000000e+00 
-8.7659302e-10 -2.2313884e-10 0.0000000e+00 
-1.9676385e-09 7.2477135e-11 0.0000000e+00 
-2.3180506e-09 -3.3016789e-10 0.0000000e+00 
2.8045524e-09 2.5928415e-10 0.0000000e+00 
-3.1452707e-10 9.8541619e-10 0.0000000e+00 
-1.4847199e-09 -7.2471096e-10 0.0000000e+00 
4.5981414e-09 1.0941079e-09 0.0000000e+00 
-8.8886942e-10 -6.2081540e-10 0.0000000e+00 
-2.9748772e-09 1.8285090e-10 0.0000000e+00 